# vtk DataFile Version 2.0
output of FEM program
ASCII

DATASET UNSTRUCTURED_GRID
POINTS 6802 float
    1.500000e+01    3.250000e+01    0.000000e+00
    1.500000e+01    3.052866e+01    0.000000e+00
    1.500000e+01    0.000000e+00    0.000000e+00
    3.000000e+01    0.000000e+00    0.000000e+00
    3.000000e+01    3.500000e+01    0.000000e+00
    1.947134e+01    3.500000e+01    0.000000e+00
    1.750000e+01    3.500000e+01    0.000000e+00
    3.000000e+01    6.500000e+01    0.000000e+00
    1.500000e+01    6.500000e+01    0.000000e+00
    1.500000e+01    3.947134e+01    0.000000e+00
    1.500000e+01    3.750000e+01    0.000000e+00
    1.250000e+01    3.500000e+01    0.000000e+00
    1.052866e+01    3.500000e+01    0.000000e+00
    0.000000e+00    3.500000e+01    0.000000e+00
    0.000000e+00    0.000000e+00    0.000000e+00
    0.000000e+00    6.500000e+01    0.000000e+00
    1.500000e+01    3.240143e+01    0.000000e+00
    1.500000e+01    3.230287e+01    0.000000e+00
    1.500000e+01    3.220430e+01    0.000000e+00
    1.500000e+01    3.210573e+01    0.000000e+00
    1.500000e+01    3.200716e+01    0.000000e+00
    1.500000e+01    3.190860e+01    0.000000e+00
    1.500000e+01    3.181003e+01    0.000000e+00
    1.500000e+01    3.171147e+01    0.000000e+00
    1.500000e+01    3.161290e+01    0.000000e+00
    1.500000e+01    3.151433e+01    0.000000e+00
    1.500000e+01    3.141577e+01    0.000000e+00
    1.500000e+01    3.131720e+01    0.000000e+00
    1.500000e+01    3.121863e+01    0.000000e+00
    1.500000e+01    3.112006e+01    0.000000e+00
    1.500000e+01    3.102150e+01    0.000000e+00
    1.500000e+01    3.092293e+01    0.000000e+00
    1.500000e+01    3.082436e+01    0.000000e+00
    1.500000e+01    3.072580e+01    0.000000e+00
    1.500000e+01    3.062723e+01    0.000000e+00
    1.500000e+01    3.041569e+01    0.000000e+00
    1.500000e+01    3.022739e+01    0.000000e+00
    1.500000e+01    2.972528e+01    0.000000e+00
    1.500000e+01    2.892189e+01    0.000000e+00
    1.500000e+01    2.811851e+01    0.000000e+00
    1.500000e+01    2.731512e+01    0.000000e+00
    1.500000e+01    2.651173e+01    0.000000e+00
    1.500000e+01    2.570835e+01    0.000000e+00
    1.500000e+01    2.490496e+01    0.000000e+00
    1.500000e+01    2.410158e+01    0.000000e+00
    1.500000e+01    2.329819e+01    0.000000e+00
    1.500000e+01    2.249480e+01    0.000000e+00
    1.500000e+01    2.169142e+01    0.000000e+00
    1.500000e+01    2.088803e+01    0.000000e+00
    1.500000e+01    2.008465e+01    0.000000e+00
    1.500000e+01    1.928126e+01    0.000000e+00
    1.500000e+01    1.847787e+01    0.000000e+00
    1.500000e+01    1.767449e+01    0.000000e+00
    1.500000e+01    1.687110e+01    0.000000e+00
    1.500000e+01    1.606772e+01    0.000000e+00
    1.500000e+01    1.526433e+01    0.000000e+00
    1.500000e+01    1.446095e+01    0.000000e+00
    1.500000e+01    1.365756e+01    0.000000e+00
    1.500000e+01    1.285417e+01    0.000000e+00
    1.500000e+01    1.205079e+01    0.000000e+00
    1.500000e+01    1.124740e+01    0.000000e+00
    1.500000e+01    1.044402e+01    0.000000e+00
    1.500000e+01    9.640631e+00    0.000000e+00
    1.500000e+01    8.837245e+00    0.000000e+00
    1.500000e+01    8.033859e+00    0.000000e+00
    1.500000e+01    7.230473e+00    0.000000e+00
    1.500000e+01    6.427087e+00    0.000000e+00
    1.500000e+01    5.623701e+00    0.000000e+00
    1.500000e+01    4.820315e+00    0.000000e+00
    1.500000e+01    4.016930e+00    0.000000e+00
    1.500000e+01    3.213544e+00    0.000000e+00
    1.500000e+01    2.410158e+00    0.000000e+00
    1.500000e+01    1.606772e+00    0.000000e+00
    1.500000e+01    8.033859e-01    0.000000e+00
    1.578947e+01    0.000000e+00    0.000000e+00
    1.657895e+01    0.000000e+00    0.000000e+00
    1.736842e+01    0.000000e+00    0.000000e+00
    1.815789e+01    0.000000e+00    0.000000e+00
    1.894737e+01    0.000000e+00    0.000000e+00
    1.973684e+01    0.000000e+00    0.000000e+00
    2.052632e+01    0.000000e+00    0.000000e+00
    2.131579e+01    0.000000e+00    0.000000e+00
    2.210526e+01    0.000000e+00    0.000000e+00
    2.289474e+01    0.000000e+00    0.000000e+00
    2.368421e+01    0.000000e+00    0.000000e+00
    2.447368e+01    0.000000e+00    0.000000e+00
    2.526316e+01    0.000000e+00    0.000000e+00
    2.605263e+01    0.000000e+00    0.000000e+00
    2.684211e+01    0.000000e+00    0.000000e+00
    2.763158e+01    0.000000e+00    0.000000e+00
    2.842105e+01    0.000000e+00    0.000000e+00
    2.921053e+01    0.000000e+00    0.000000e+00
    3.000000e+01    7.954546e-01    0.000000e+00
    3.000000e+01    1.590909e+00    0.000000e+00
    3.000000e+01    2.386364e+00    0.000000e+00
    3.000000e+01    3.181818e+00    0.000000e+00
    3.000000e+01    3.977273e+00    0.000000e+00
    3.000000e+01    4.772727e+00    0.000000e+00
    3.000000e+01    5.568182e+00    0.000000e+00
    3.000000e+01    6.363636e+00    0.000000e+00
    3.000000e+01    7.159091e+00    0.000000e+00
    3.000000e+01    7.954545e+00    0.000000e+00
    3.000000e+01    8.750000e+00    0.000000e+00
    3.000000e+01    9.545455e+00    0.000000e+00
    3.000000e+01    1.034091e+01    0.000000e+00
    3.000000e+01    1.113636e+01    0.000000e+00
    3.000000e+01    1.193182e+01    0.000000e+00
    3.000000e+01    1.272727e+01    0.000000e+00
    3.000000e+01    1.352273e+01    0.000000e+00
    3.000000e+01    1.431818e+01    0.000000e+00
    3.000000e+01    1.511364e+01    0.000000e+00
    3.000000e+01    1.590909e+01    0.000000e+00
    3.000000e+01    1.670455e+01    0.000000e+00
    3.000000e+01    1.750000e+01    0.000000e+00
    3.000000e+01    1.829545e+01    0.000000e+00
    3.000000e+01    1.909091e+01    0.000000e+00
    3.000000e+01    1.988636e+01    0.000000e+00
    3.000000e+01    2.068182e+01    0.000000e+00
    3.000000e+01    2.147727e+01    0.000000e+00
    3.000000e+01    2.227273e+01    0.000000e+00
    3.000000e+01    2.306818e+01    0.000000e+00
    3.000000e+01    2.386364e+01    0.000000e+00
    3.000000e+01    2.465909e+01    0.000000e+00
    3.000000e+01    2.545455e+01    0.000000e+00
    3.000000e+01    2.625000e+01    0.000000e+00
    3.000000e+01    2.704545e+01    0.000000e+00
    3.000000e+01    2.784091e+01    0.000000e+00
    3.000000e+01    2.863636e+01    0.000000e+00
    3.000000e+01    2.943182e+01    0.000000e+00
    3.000000e+01    3.022727e+01    0.000000e+00
    3.000000e+01    3.102273e+01    0.000000e+00
    3.000000e+01    3.181818e+01    0.000000e+00
    3.000000e+01    3.261364e+01    0.000000e+00
    3.000000e+01    3.340909e+01    0.000000e+00
    3.000000e+01    3.420454e+01    0.000000e+00
    2.919010e+01    3.500000e+01    0.000000e+00
    2.838021e+01    3.500000e+01    0.000000e+00
    2.757031e+01    3.500000e+01    0.000000e+00
    2.676041e+01    3.500000e+01    0.000000e+00
    2.595051e+01    3.500000e+01    0.000000e+00
    2.514062e+01    3.500000e+01    0.000000e+00
    2.433072e+01    3.500000e+01    0.000000e+00
    2.352082e+01    3.500000e+01    0.000000e+00
    2.271093e+01    3.500000e+01    0.000000e+00
    2.190103e+01    3.500000e+01    0.000000e+00
    2.109113e+01    3.500000e+01    0.000000e+00
    2.028123e+01    3.500000e+01    0.000000e+00
    1.977505e+01    3.500000e+01    0.000000e+00
    1.958523e+01    3.500000e+01    0.000000e+00
    1.937277e+01    3.500000e+01    0.000000e+00
    1.927420e+01    3.500000e+01    0.000000e+00
    1.917564e+01    3.500000e+01    0.000000e+00
    1.907707e+01    3.500000e+01    0.000000e+00
    1.897850e+01    3.500000e+01    0.000000e+00
    1.887994e+01    3.500000e+01    0.000000e+00
    1.878137e+01    3.500000e+01    0.000000e+00
    1.868280e+01    3.500000e+01    0.000000e+00
    1.858423e+01    3.500000e+01    0.000000e+00
    1.848567e+01    3.500000e+01    0.000000e+00
    1.838710e+01    3.500000e+01    0.000000e+00
    1.828853e+01    3.500000e+01    0.000000e+00
    1.818997e+01    3.500000e+01    0.000000e+00
    1.809140e+01    3.500000e+01    0.000000e+00
    1.799283e+01    3.500000e+01    0.000000e+00
    1.789427e+01    3.500000e+01    0.000000e+00
    1.779570e+01    3.500000e+01    0.000000e+00
    1.769713e+01    3.500000e+01    0.000000e+00
    1.759857e+01    3.500000e+01    0.000000e+00
    1.749797e+01    3.489933e+01    0.000000e+00
    1.749189e+01    3.479883e+01    0.000000e+00
    1.748177e+01    3.469866e+01    0.000000e+00
    1.746763e+01    3.459897e+01    0.000000e+00
    1.744948e+01    3.449994e+01    0.000000e+00
    1.742735e+01    3.440171e+01    0.000000e+00
    1.740129e+01    3.430445e+01    0.000000e+00
    1.737134e+01    3.420833e+01    0.000000e+00
    1.733754e+01    3.411349e+01    0.000000e+00
    1.729995e+01    3.402008e+01    0.000000e+00
    1.725863e+01    3.392827e+01    0.000000e+00
    1.721364e+01    3.383819e+01    0.000000e+00
    1.716506e+01    3.375000e+01    0.000000e+00
    1.711298e+01    3.366383e+01    0.000000e+00
    1.705746e+01    3.357984e+01    0.000000e+00
    1.699861e+01    3.349815e+01    0.000000e+00
    1.693651e+01    3.341889e+01    0.000000e+00
    1.687128e+01    3.334219e+01    0.000000e+00
    1.680301e+01    3.326819e+01    0.000000e+00
    1.673181e+01    3.319699e+01    0.000000e+00
    1.665781e+01    3.312872e+01    0.000000e+00
    1.658111e+01    3.306349e+01    0.000000e+00
    1.650186e+01    3.300139e+01    0.000000e+00
    1.642016e+01    3.294254e+01    0.000000e+00
    1.633616e+01    3.288702e+01    0.000000e+00
    1.625000e+01    3.283494e+01    0.000000e+00
    1.616181e+01    3.278636e+01    0.000000e+00
    1.607173e+01    3.274137e+01    0.000000e+00
    1.597992e+01    3.270005e+01    0.000000e+00
    1.588651e+01    3.266246e+01    0.000000e+00
    1.579167e+01    3.262866e+01    0.000000e+00
    1.569554e+01    3.259871e+01    0.000000e+00
    1.559829e+01    3.257265e+01    0.000000e+00
    1.550006e+01    3.255052e+01    0.000000e+00
[...]
POINT_DATA 6802
VECTORS displacement float
   -2.202897e-03    1.413662e-02    0.000000e+00
   -2.203659e-03    1.392813e-02    0.000000e+00
   -2.212404e-03    0.000000e+00    0.000000e+00
   -4.429498e-03    0.000000e+00    0.000000e+00
   -5.017137e-03    1.799212e-02    0.000000e+00
   -3.789898e-03    1.799448e-02    0.000000e+00
   -3.549982e-03    1.799452e-02    0.000000e+00
   -4.348229e-03    3.342776e-02    0.000000e+00
   -2.196155e-03    3.355408e-02    0.000000e+00
   -2.202660e-03    2.206056e-02    0.000000e+00
   -2.203446e-03    2.185187e-02    0.000000e+00
   -8.552342e-04    1.799410e-02    0.000000e+00
   -6.156317e-04    1.799437e-02    0.000000e+00
    6.107376e-04    1.799935e-02    0.000000e+00
    0.000000e+00    0.000000e+00    0.000000e+00
   -4.398357e-05    3.343458e-02    0.000000e+00
   -2.202455e-03    1.412048e-02    0.000000e+00
   -2.202930e-03    1.410879e-02    0.000000e+00
   -2.202953e-03    1.410088e-02    0.000000e+00
   -2.203731e-03    1.409497e-02    0.000000e+00
   -2.202912e-03    1.408956e-02    0.000000e+00
   -2.202954e-03    1.408433e-02    0.000000e+00
   -2.203052e-03    1.407891e-02    0.000000e+00
   -2.203049e-03    1.407302e-02    0.000000e+00
   -2.203138e-03    1.406644e-02    0.000000e+00
   -2.203128e-03    1.405900e-02    0.000000e+00
   -2.203216e-03    1.405061e-02    0.000000e+00
   -2.203298e-03    1.404114e-02    0.000000e+00
   -2.203261e-03    1.403078e-02    0.000000e+00
   -2.203295e-03    1.401946e-02    0.000000e+00
   -2.203378e-03    1.400699e-02    0.000000e+00
   -2.203414e-03    1.399345e-02    0.000000e+00
   -2.203454e-03    1.397873e-02    0.000000e+00
   -2.203522e-03    1.396298e-02    0.000000e+00
   -2.203577e-03    1.394606e-02    0.000000e+00
   -2.203765e-03    1.390647e-02    0.000000e+00
   -2.203853e-03    1.386780e-02    0.000000e+00
   -2.204030e-03    1.374818e-02    0.000000e+00
   -2.204146e-03    1.351388e-02    0.000000e+00
   -2.205261e-03    1.325076e-02    0.000000e+00
   -2.204664e-03    1.295806e-02    0.000000e+00
   -2.206844e-03    1.264620e-02    0.000000e+00
   -2.206045e-03    1.231997e-02    0.000000e+00
   -2.206553e-03    1.198148e-02    0.000000e+00
   -2.206901e-03    1.163345e-02    0.000000e+00
   -2.207070e-03    1.127795e-02    0.000000e+00
   -2.207358e-03    1.091589e-02    0.000000e+00
   -2.207515e-03    1.055049e-02    0.000000e+00
   -2.207899e-03    1.018033e-02    0.000000e+00
   -2.207995e-03    9.806901e-03    0.000000e+00
   -2.208294e-03    9.430099e-03    0.000000e+00
   -2.208532e-03    9.051353e-03    0.000000e+00
   -2.208825e-03    8.669948e-03    0.000000e+00
   -2.209079e-03    8.286407e-03    0.000000e+00
   -2.209247e-03    7.901000e-03    0.000000e+00
   -2.209635e-03    7.513972e-03    0.000000e+00
   -2.209753e-03    7.125633e-03    0.000000e+00
   -2.210051e-03    6.735933e-03    0.000000e+00
   -2.210240e-03    6.345266e-03    0.000000e+00
   -2.210465e-03    5.953374e-03    0.000000e+00
   -2.210693e-03    5.560461e-03    0.000000e+00
   -2.210901e-03    5.166634e-03    0.000000e+00
   -2.211118e-03    4.771982e-03    0.000000e+00
   -2.211241e-03    4.376678e-03    0.000000e+00
   -2.211460e-03    3.980695e-03    0.000000e+00
   -2.211625e-03    3.584229e-03    0.000000e+00
   -2.211777e-03    3.187217e-03    0.000000e+00
   -2.211922e-03    2.789750e-03    0.000000e+00
   -2.212048e-03    2.391896e-03    0.000000e+00
   -2.212161e-03    1.993701e-03    0.000000e+00
   -2.212234e-03    1.595285e-03    0.000000e+00
   -2.212327e-03    1.196638e-03    0.000000e+00
   -2.212362e-03    7.978553e-04    0.000000e+00
   -2.212394e-03    3.989448e-04    0.000000e+00
   -2.327131e-03    0.000000e+00    0.000000e+00
   -2.441909e-03    0.000000e+00    0.000000e+00
   -2.556809e-03    0.000000e+00    0.000000e+00
   -2.671868e-03    0.000000e+00    0.000000e+00
   -2.787119e-03    0.000000e+00    0.000000e+00
   -2.902613e-03    0.000000e+00    0.000000e+00
   -3.018393e-03    0.000000e+00    0.000000e+00
   -3.134468e-03    0.000000e+00    0.000000e+00
   -3.250834e-03    0.000000e+00    0.000000e+00
   -3.367561e-03    0.000000e+00    0.000000e+00
   -3.484674e-03    0.000000e+00    0.000000e+00
   -3.601994e-03    0.000000e+00    0.000000e+00
   -3.719667e-03    0.000000e+00    0.000000e+00
   -3.837558e-03    0.000000e+00    0.000000e+00
   -3.955713e-03    0.000000e+00    0.000000e+00
   -4.074062e-03    0.000000e+00    0.000000e+00
   -4.192534e-03    0.000000e+00    0.000000e+00
   -4.311074e-03    0.000000e+00    0.000000e+00
   -4.429354e-03    3.979027e-04    0.000000e+00
   -4.428839e-03    7.958636e-04    0.000000e+00
   -4.428036e-03    1.193888e-03    0.000000e+00
   -4.426849e-03    1.592096e-03    0.000000e+00
   -4.425312e-03    1.990498e-03    0.000000e+00
   -4.423534e-03    2.389202e-03    0.000000e+00
   -4.421410e-03    2.788245e-03    0.000000e+00
   -4.419004e-03    3.187697e-03    0.000000e+00
   -4.416407e-03    3.587650e-03    0.000000e+00
   -4.413572e-03    3.988133e-03    0.000000e+00
   -4.410568e-03    4.389281e-03    0.000000e+00
   -4.407298e-03    4.791219e-03    0.000000e+00
   -4.404260e-03    5.193952e-03    0.000000e+00
   -4.401006e-03    5.597735e-03    0.000000e+00
   -4.397857e-03    6.002242e-03    0.000000e+00
   -4.395076e-03    6.408032e-03    0.000000e+00
   -4.392576e-03    6.815139e-03    0.000000e+00
   -4.390490e-03    7.223780e-03    0.000000e+00
   -4.389223e-03    7.633883e-03    0.000000e+00
   -4.388851e-03    8.045617e-03    0.000000e+00
   -4.389623e-03    8.459103e-03    0.000000e+00
   -4.391412e-03    8.874766e-03    0.000000e+00
   -4.395348e-03    9.291997e-03    0.000000e+00
   -4.401242e-03    9.711335e-03    0.000000e+00
   -4.409372e-03    1.013288e-02    0.000000e+00
   -4.420642e-03    1.055588e-02    0.000000e+00
   -4.435377e-03    1.098200e-02    0.000000e+00
   -4.452548e-03    1.140795e-02    0.000000e+00
   -4.474355e-03    1.183578e-02    0.000000e+00
   -4.500659e-03    1.226544e-02    0.000000e+00
   -4.530977e-03    1.269513e-02    0.000000e+00
   -4.566048e-03    1.312356e-02    0.000000e+00
   -4.605551e-03    1.355209e-02    0.000000e+00
   -4.649012e-03    1.397802e-02    0.000000e+00
   -4.695961e-03    1.440107e-02    0.000000e+00
   -4.744948e-03    1.482018e-02    0.000000e+00
   -4.794941e-03    1.523463e-02    0.000000e+00
   -4.844843e-03    1.564375e-02    0.000000e+00
   -4.891159e-03    1.604759e-02    0.000000e+00
   -4.933778e-03    1.644486e-02    0.000000e+00
   -4.970029e-03    1.683714e-02    0.000000e+00
   -4.995830e-03    1.722374e-02    0.000000e+00
   -5.012559e-03    1.760886e-02    0.000000e+00
   -4.901759e-03    1.799220e-02    0.000000e+00
   -4.782127e-03    1.799221e-02    0.000000e+00
   -4.663571e-03    1.799235e-02    0.000000e+00
   -4.547012e-03    1.799235e-02    0.000000e+00
   -4.434472e-03    1.799292e-02    0.000000e+00
   -4.325940e-03    1.799189e-02    0.000000e+00
   -4.222621e-03    1.799203e-02    0.000000e+00
   -4.125101e-03    1.799367e-02    0.000000e+00
   -4.036642e-03    1.799333e-02    0.000000e+00
   -3.954813e-03    1.799362e-02    0.000000e+00
   -3.887938e-03    1.799383e-02    0.000000e+00
   -3.830243e-03    1.799442e-02    0.000000e+00
   -3.803356e-03    1.799444e-02    0.000000e+00
   -3.794820e-03    1.799442e-02    0.000000e+00
   -3.785543e-03    1.799450e-02    0.000000e+00
   -3.781664e-03    1.799442e-02    0.000000e+00
   -3.777779e-03    1.799442e-02    0.000000e+00
   -3.773732e-03    1.799428e-02    0.000000e+00
   -3.769605e-03    1.799424e-02    0.000000e+00
   -3.765526e-03    1.799437e-02    0.000000e+00
   -3.761129e-03    1.799476e-02    0.000000e+00
   -3.756464e-03    1.799448e-02    0.000000e+00
   -3.751144e-03    1.799412e-02    0.000000e+00
   -3.745054e-03    1.799407e-02    0.000000e+00
   -3.737980e-03    1.799424e-02    0.000000e+00
   -3.729846e-03    1.799428e-02    0.000000e+00
   -3.720033e-03    1.799447e-02    0.000000e+00
   -3.708343e-03    1.799423e-02    0.000000e+00
   -3.694059e-03    1.799408e-02    0.000000e+00
   -3.677087e-03    1.799427e-02    0.000000e+00
   -3.656051e-03    1.799452e-02    0.000000e+00
   -3.629217e-03    1.799395e-02    0.000000e+00
   -3.594895e-03    1.799441e-02    0.000000e+00
   -3.553039e-03    1.783647e-02    0.000000e+00
   -3.551390e-03    1.768152e-02    0.000000e+00
   -3.546035e-03    1.753064e-02    0.000000e+00
   -3.535017e-03    1.738090e-02    0.000000e+00
   -3.528487e-03    1.722539e-02    0.000000e+00
   -3.517403e-03    1.707272e-02    0.000000e+00
   -3.503425e-03    1.692045e-02    0.000000e+00
   -3.486537e-03    1.677177e-02    0.000000e+00
   -3.467878e-03    1.662502e-02    0.000000e+00
   -3.447962e-03    1.648029e-02    0.000000e+00
   -3.424891e-03    1.633776e-02    0.000000e+00
   -3.400650e-03    1.619777e-02    0.000000e+00
   -3.373623e-03    1.606260e-02    0.000000e+00
   -3.345249e-03    1.592923e-02    0.000000e+00
   -3.315076e-03    1.579929e-02    0.000000e+00
   -3.282873e-03    1.567345e-02    0.000000e+00
   -3.249257e-03    1.555041e-02    0.000000e+00
   -3.213183e-03    1.543263e-02    0.000000e+00
   -3.176573e-03    1.531792e-02    0.000000e+00
   -3.137495e-03    1.520809e-02    0.000000e+00
   -3.097188e-03    1.510261e-02    0.000000e+00
   -3.055401e-03    1.500206e-02    0.000000e+00
   -3.012512e-03    1.490635e-02    0.000000e+00
   -2.968400e-03    1.481538e-02    0.000000e+00
   -2.922937e-03    1.472970e-02    0.000000e+00
   -2.876402e-03    1.464927e-02    0.000000e+00
   -2.828765e-03    1.457422e-02    0.000000e+00
   -2.780006e-03    1.450473e-02    0.000000e+00
   -2.730417e-03    1.444090e-02    0.000000e+00
   -2.679921e-03    1.438284e-02    0.000000e+00
   -2.628755e-03    1.433060e-02    0.000000e+00
   -2.576514e-03    1.428430e-02    0.000000e+00
   -2.523691e-03    1.424408e-02    0.000000e+00
   -2.469707e-03    1.421034e-02    0.000000e+00
   -2.414485e-03    1.418479e-02    0.000000e+00
   -2.363470e-03    1.416116e-02    0.000000e+00
   -2.311758e-03    1.414557e-02    0.000000e+00
   -2.257623e-03    1.413713e-02    0.000000e+00
   -5.012537e-03    1.837243e-02    0.000000e+00
   -4.995968e-03    1.875469e-02    0.000000e+00
   -4.970468e-03    1.913831e-02    0.000000e+00
   -4.935066e-03    1.952760e-02    0.000000e+00
   -4.892868e-03    1.992165e-02    0.000000e+00
   -4.847378e-03    2.032227e-02    0.000000e+00
   -4.798087e-03    2.072783e-02    0.000000e+00
   -4.747958e-03    2.113888e-02    0.000000e+00
   -4.699718e-03    2.155417e-02    0.000000e+00
   -4.652729e-03    2.197325e-02    0.000000e+00
   -4.609425e-03    2.239524e-02    0.000000e+00
   -4.569853e-03    2.281993e-02    0.000000e+00
   -4.534589e-03    2.324439e-02    0.000000e+00
   -4.503529e-03    2.366998e-02    0.000000e+00
   -4.477215e-03    2.409566e-02    0.000000e+00
   -4.454600e-03    2.451902e-02    0.000000e+00
   -4.436099e-03    2.494249e-02    0.000000e+00
   -4.420874e-03    2.536351e-02    0.000000e+00
   -4.409290e-03    2.578308e-02    0.000000e+00
   -4.399555e-03    2.619975e-02    0.000000e+00
   -4.392666e-03    2.661490e-02    0.000000e+00
   -4.387740e-03    2.702802e-02    0.000000e+00
   -4.383758e-03    2.743846e-02    0.000000e+00
   -4.381525e-03    2.784770e-02    0.000000e+00
   -4.380036e-03    2.825464e-02    0.000000e+00
   -4.378940e-03    2.865943e-02    0.000000e+00
   -4.378622e-03    2.906290e-02    0.000000e+00
   -4.378040e-03    2.946455e-02    0.000000e+00
   -4.377544e-03    2.986478e-02    0.000000e+00
   -4.376632e-03    3.026358e-02    0.000000e+00
   -4.375478e-03    3.066115e-02    0.000000e+00
   -4.373587e-03    3.105786e-02    0.000000e+00
   -4.370951e-03    3.145386e-02    0.000000e+00
   -4.367788e-03    3.184911e-02    0.000000e+00
   -4.363719e-03    3.224391e-02    0.000000e+00
   -4.358961e-03    3.263853e-02    0.000000e+00
   -4.353729e-03    3.303315e-02    0.000000e+00
   -4.229807e-03    3.343316e-02    0.000000e+00
   -4.111244e-03    3.343874e-02    0.000000e+00
   -3.992654e-03    3.344491e-02    0.000000e+00
   -3.874317e-03    3.345161e-02    0.000000e+00
   -3.756385e-03    3.345923e-02    0.000000e+00
   -3.639147e-03    3.346729e-02    0.000000e+00
   -3.522650e-03    3.347618e-02    0.000000e+00
   -3.407114e-03    3.348515e-02    0.000000e+00
   -3.292583e-03    3.349457e-02    0.000000e+00
   -3.179011e-03    3.350361e-02    0.000000e+00
   -3.066524e-03    3.351283e-02    0.000000e+00
   -2.955104e-03    3.352127e-02    0.000000e+00
   -2.844706e-03    3.352935e-02    0.000000e+00
   -2.735227e-03    3.353614e-02    0.000000e+00
   -2.626238e-03    3.354256e-02    0.000000e+00
   -2.518055e-03    3.354745e-02    0.000000e+00
   -2.410662e-03    3.355117e-02    0.000000e+00
   -2.303304e-03    3.355342e-02    0.000000e+00
   -2.196374e-03    3.315874e-02    0.000000e+00
   -2.196525e-03    3.276313e-02    0.000000e+00
   -2.196666e-03    3.236749e-02    0.000000e+00
   -2.196863e-03    3.197204e-02    0.000000e+00
   -2.197059e-03    3.157686e-02    0.000000e+00
   -2.197264e-03    3.118235e-02    0.000000e+00
   -2.197453e-03    3.078849e-02    0.000000e+00
   -2.197607e-03    3.039548e-02    0.000000e+00
   -2.197770e-03    3.000334e-02    0.000000e+00
   -2.197943e-03    2.961217e-02    0.000000e+00
   -2.198130e-03    2.922212e-02    0.000000e+00
   -2.198369e-03    2.883343e-02    0.000000e+00
   -2.198556e-03    2.844601e-02    0.000000e+00
   -2.198752e-03    2.806016e-02    0.000000e+00
   -2.198911e-03    2.767600e-02    0.000000e+00
   -2.199105e-03    2.729373e-02    0.000000e+00
   -2.199314e-03    2.691353e-02    0.000000e+00
   -2.199656e-03    2.653565e-02    0.000000e+00
   -2.199662e-03    2.616069e-02    0.000000e+00
   -2.199977e-03    2.578851e-02    0.000000e+00
   -2.199754e-03    2.541997e-02    0.000000e+00
   -2.200417e-03    2.505570e-02    0.000000e+00
   -2.199599e-03    2.469660e-02    0.000000e+00
   -2.200469e-03    2.434294e-02    0.000000e+00
   -2.200481e-03    2.399695e-02    0.000000e+00
   -2.200390e-03    2.366038e-02    0.000000e+00
   -2.200878e-03    2.333433e-02    0.000000e+00
   -2.202160e-03    2.302653e-02    0.000000e+00
   -2.201687e-03    2.273458e-02    0.000000e+00
   -2.202699e-03    2.247161e-02    0.000000e+00
   -2.202495e-03    2.224076e-02    0.000000e+00
   -2.202539e-03    2.212079e-02    0.000000e+00
   -2.202626e-03    2.208214e-02    0.000000e+00
   -2.202725e-03    2.204263e-02    0.000000e+00
   -2.202798e-03    2.202562e-02    0.000000e+00
   -2.202866e-03    2.200965e-02    0.000000e+00
   -2.202899e-03    2.199468e-02    0.000000e+00
   -2.203010e-03    2.198093e-02    0.000000e+00
   -2.203023e-03    2.196843e-02    0.000000e+00
   -2.203063e-03    2.195705e-02    0.000000e+00
   -2.203182e-03    2.194669e-02    0.000000e+00
   -2.203184e-03    2.193724e-02    0.000000e+00
   -2.203308e-03    2.192882e-02    0.000000e+00
   -2.203239e-03    2.192132e-02    0.000000e+00
   -2.203424e-03    2.191466e-02    0.000000e+00
   -2.203351e-03    2.190864e-02    0.000000e+00
   -2.203450e-03    2.190306e-02    0.000000e+00
   -2.203353e-03    2.189768e-02    0.000000e+00
   -2.203495e-03    2.189243e-02    0.000000e+00
   -2.203205e-03    2.188593e-02    0.000000e+00
   -2.203919e-03    2.187959e-02    0.000000e+00
   -2.204157e-03    2.186778e-02    0.000000e+00
   -2.257113e-03    2.185135e-02    0.000000e+00
   -2.311275e-03    2.184170e-02    0.000000e+00
   -2.364174e-03    2.182364e-02    0.000000e+00
   -2.417925e-03    2.180437e-02    0.000000e+00
   -2.471849e-03    2.177644e-02    0.000000e+00
   -2.525356e-03    2.174229e-02    0.000000e+00
   -2.578330e-03    2.170183e-02    0.000000e+00
   -2.630011e-03    2.165524e-02    0.000000e+00
   -2.681019e-03    2.160290e-02    0.000000e+00
   -2.731515e-03    2.154469e-02    0.000000e+00
   -2.781017e-03    2.148076e-02    0.000000e+00
   -2.829663e-03    2.141119e-02    0.000000e+00
   -2.877140e-03    2.133605e-02    0.000000e+00
   -2.923592e-03    2.125559e-02    0.000000e+00
   -2.968767e-03    2.116985e-02    0.000000e+00
   -3.012919e-03    2.107917e-02    0.000000e+00
   -3.055702e-03    2.098329e-02    0.000000e+00
   -3.096933e-03    2.088256e-02    0.000000e+00
   -3.137088e-03    2.077758e-02    0.000000e+00
   -3.175921e-03    2.066801e-02    0.000000e+00
   -3.212371e-03    2.055308e-02    0.000000e+00
   -3.248364e-03    2.043569e-02    0.000000e+00
   -3.282047e-03    2.031266e-02    0.000000e+00
   -3.313930e-03    2.018694e-02    0.000000e+00
   -3.344349e-03    2.005750e-02    0.000000e+00
   -3.372793e-03    1.992432e-02    0.000000e+00
   -3.399088e-03    1.978788e-02    0.000000e+00
   -3.423320e-03    1.964897e-02    0.000000e+00
   -3.446190e-03    1.950803e-02    0.000000e+00
   -3.466936e-03    1.936327e-02    0.000000e+00
   -3.485007e-03    1.921635e-02    0.000000e+00
   -3.501972e-03    1.906886e-02    0.000000e+00
   -3.516852e-03    1.891795e-02    0.000000e+00
   -3.528801e-03    1.876397e-02    0.000000e+00
   -3.534520e-03    1.860688e-02    0.000000e+00
   -3.545643e-03    1.845819e-02    0.000000e+00
   -3.551285e-03    1.830623e-02    0.000000e+00
   -3.552865e-03    1.815135e-02    0.000000e+00
   -8.104913e-04    1.799305e-02    0.000000e+00
   -7.760000e-04    1.799314e-02    0.000000e+00
   -7.495499e-04    1.799351e-02    0.000000e+00
   -7.282175e-04    1.799414e-02    0.000000e+00
   -7.115238e-04    1.799437e-02    0.000000e+00
   -6.972340e-04    1.799417e-02    0.000000e+00
   -6.855750e-04    1.799393e-02    0.000000e+00
   -6.757748e-04    1.799411e-02    0.000000e+00
   -6.674067e-04    1.799415e-02    0.000000e+00
   -6.600200e-04    1.799404e-02    0.000000e+00
   -6.539555e-04    1.799403e-02    0.000000e+00
   -6.485985e-04    1.799407e-02    0.000000e+00
   -6.440621e-04    1.799411e-02    0.000000e+00
   -6.397306e-04    1.799410e-02    0.000000e+00
   -6.357018e-04    1.799405e-02    0.000000e+00
   -6.317432e-04    1.799410e-02    0.000000e+00
   -6.276676e-04    1.799417e-02    0.000000e+00
   -6.240894e-04    1.799404e-02    0.000000e+00
   -6.199480e-04    1.799426e-02    0.000000e+00
   -6.106495e-04    1.799442e-02    0.000000e+00
   -6.021444e-04    1.799452e-02    0.000000e+00
   -5.752057e-04    1.799464e-02    0.000000e+00
   -5.190497e-04    1.799554e-02    0.000000e+00
   -4.512768e-04    1.799542e-02    0.000000e+00
   -3.704161e-04    1.799623e-02    0.000000e+00
   -2.813755e-04    1.799629e-02    0.000000e+00
   -1.842991e-04    1.799719e-02    0.000000e+00
   -8.058188e-05    1.799653e-02    0.000000e+00
    2.818269e-05    1.799782e-02    0.000000e+00
    1.416874e-04    1.799795e-02    0.000000e+00
    2.570918e-04    1.799777e-02    0.000000e+00
    3.756270e-04    1.799863e-02    0.000000e+00
    4.953421e-04    1.799891e-02    0.000000e+00
    6.056566e-04    1.761611e-02    0.000000e+00
    5.884377e-04    1.723099e-02    0.000000e+00
    5.621800e-04    1.684440e-02    0.000000e+00
    5.255689e-04    1.645210e-02    0.000000e+00
    4.821624e-04    1.605502e-02    0.000000e+00
    4.354751e-04    1.565135e-02    0.000000e+00
    3.852241e-04    1.524217e-02    0.000000e+00
    3.345780e-04    1.482760e-02    0.000000e+00
    2.851558e-04    1.440838e-02    0.000000e+00
    2.378401e-04    1.398528e-02    0.000000e+00
    1.939099e-04    1.355939e-02    0.000000e+00
    1.538309e-04    1.313093e-02    0.000000e+00
    1.183802e-04    1.270211e-02    0.000000e+00
    8.726912e-05    1.227259e-02    0.000000e+00
    6.095423e-05    1.184331e-02    0.000000e+00
    3.849243e-05    1.141514e-02    0.000000e+00
    2.021821e-05    1.098823e-02    0.000000e+00
    5.462458e-06    1.056288e-02    0.000000e+00
   -6.254995e-06    1.013945e-02    0.000000e+00
   -1.497148e-05    9.717942e-03    0.000000e+00
   -2.133501e-05    9.298591e-03    0.000000e+00
   -2.536312e-05    8.880804e-03    0.000000e+00
   -2.826521e-05    8.465319e-03    0.000000e+00