# vtk DataFile Version 2.0
output of FEM program
ASCII

DATASET UNSTRUCTURED_GRID
POINTS 2692 float
    2.500000e+00    5.500000e+01    0.000000e+00
    2.500000e+00    5.750000e+01    0.000000e+00
    0.000000e+00    5.500000e+01    0.000000e+00
    0.000000e+00    0.000000e+00    0.000000e+00
    5.000000e+00    0.000000e+00    0.000000e+00
    5.000000e+00    2.750000e+01    0.000000e+00
    7.500000e+00    3.000000e+01    0.000000e+00
    2.750000e+01    3.000000e+01    0.000000e+00
    3.000000e+01    2.750000e+01    0.000000e+00
    3.000000e+01    0.000000e+00    0.000000e+00
    3.500000e+01    0.000000e+00    0.000000e+00
    3.500000e+01    3.250000e+01    0.000000e+00
    3.250000e+01    3.500000e+01    0.000000e+00
    3.000000e+01    3.500000e+01    0.000000e+00
    7.500000e+00    3.500000e+01    0.000000e+00
    5.000000e+00    3.750000e+01    0.000000e+00
    5.000000e+00    5.500000e+01    0.000000e+00
    2.500000e+00    5.550000e+01    0.000000e+00
    2.500000e+00    5.600000e+01    0.000000e+00
    2.500000e+00    5.650000e+01    0.000000e+00
    2.500000e+00    5.700000e+01    0.000000e+00
    2.012274e+00    5.745196e+01    0.000000e+00
    1.543291e+00    5.730970e+01    0.000000e+00
    1.111074e+00    5.707867e+01    0.000000e+00
    7.322330e-01    5.676777e+01    0.000000e+00
    4.213260e-01    5.638893e+01    0.000000e+00
    1.903012e-01    5.595671e+01    0.000000e+00
    4.803680e-02    5.548772e+01    0.000000e+00
    5.000000e-01    5.500000e+01    0.000000e+00
    1.000000e+00    5.500000e+01    0.000000e+00
    1.500000e+00    5.500000e+01    0.000000e+00
    2.000000e+00    5.500000e+01    0.000000e+00
    0.000000e+00    5.450000e+01    0.000000e+00
    0.000000e+00    5.400000e+01    0.000000e+00
    0.000000e+00    5.350000e+01    0.000000e+00
    0.000000e+00    5.300000e+01    0.000000e+00
    0.000000e+00    5.250000e+01    0.000000e+00
    0.000000e+00    5.200000e+01    0.000000e+00
    0.000000e+00    5.150000e+01    0.000000e+00
    0.000000e+00    5.100000e+01    0.000000e+00
    0.000000e+00    5.050000e+01    0.000000e+00
    0.000000e+00    5.000000e+01    0.000000e+00
    0.000000e+00    4.950000e+01    0.000000e+00
    0.000000e+00    4.900000e+01    0.000000e+00
    0.000000e+00    4.850000e+01    0.000000e+00
    0.000000e+00    4.800000e+01    0.000000e+00
    0.000000e+00    4.750000e+01    0.000000e+00
    0.000000e+00    4.700000e+01    0.000000e+00
    0.000000e+00    4.650000e+01    0.000000e+00
    0.000000e+00    4.600000e+01    0.000000e+00
    0.000000e+00    4.550000e+01    0.000000e+00
    0.000000e+00    4.500000e+01    0.000000e+00
    0.000000e+00    4.450000e+01    0.000000e+00
    0.000000e+00    4.400000e+01    0.000000e+00
    0.000000e+00    4.350000e+01    0.000000e+00
    0.000000e+00    4.300000e+01    0.000000e+00
    0.000000e+00    4.250000e+01    0.000000e+00
    0.000000e+00    4.200000e+01    0.000000e+00
    0.000000e+00    4.150000e+01    0.000000e+00
    0.000000e+00    4.100000e+01    0.000000e+00
    0.000000e+00    4.050000e+01    0.000000e+00
    0.000000e+00    4.000000e+01    0.000000e+00
    0.000000e+00    3.950000e+01    0.000000e+00
    0.000000e+00    3.900000e+01    0.000000e+00
    0.000000e+00    3.850000e+01    0.000000e+00
    0.000000e+00    3.800000e+01    0.000000e+00
    0.000000e+00    3.750000e+01    0.000000e+00
    0.000000e+00    3.700000e+01    0.000000e+00
    0.000000e+00    3.650000e+01    0.000000e+00
    0.000000e+00    3.600000e+01    0.000000e+00
    0.000000e+00    3.550000e+01    0.000000e+00
    0.000000e+00    3.500000e+01    0.000000e+00
    0.000000e+00    3.450000e+01    0.000000e+00
    0.000000e+00    3.400000e+01    0.000000e+00
    0.000000e+00    3.350000e+01    0.000000e+00
    0.000000e+00    3.300000e+01    0.000000e+00
    0.000000e+00    3.250000e+01    0.000000e+00
    0.000000e+00    3.200000e+01    0.000000e+00
    0.000000e+00    3.150000e+01    0.000000e+00
    0.000000e+00    3.100000e+01    0.000000e+00
    0.000000e+00    3.050000e+01    0.000000e+00
    0.000000e+00    3.000000e+01    0.000000e+00
    0.000000e+00    2.950000e+01    0.000000e+00
    0.000000e+00    2.900000e+01    0.000000e+00
    0.000000e+00    2.850000e+01    0.000000e+00
    0.000000e+00    2.800000e+01    0.000000e+00
    0.000000e+00    2.750000e+01    0.000000e+00
    0.000000e+00    2.700000e+01    0.000000e+00
    0.000000e+00    2.650000e+01    0.000000e+00
    0.000000e+00    2.600000e+01    0.000000e+00
    0.000000e+00    2.550000e+01    0.000000e+00
    0.000000e+00    2.500000e+01    0.000000e+00
    0.000000e+00    2.450000e+01    0.000000e+00
    0.000000e+00    2.400000e+01    0.000000e+00
    0.000000e+00    2.350000e+01    0.000000e+00
    0.000000e+00    2.300000e+01    0.000000e+00
    0.000000e+00    2.250000e+01    0.000000e+00
    0.000000e+00    2.200000e+01    0.000000e+00
    0.000000e+00    2.150000e+01    0.000000e+00
    0.000000e+00    2.100000e+01    0.000000e+00
    0.000000e+00    2.050000e+01    0.000000e+00
    0.000000e+00    2.000000e+01    0.000000e+00
    0.000000e+00    1.950000e+01    0.000000e+00
    0.000000e+00    1.900000e+01    0.000000e+00
    0.000000e+00    1.850000e+01    0.000000e+00
    0.000000e+00    1.800000e+01    0.000000e+00
    0.000000e+00    1.750000e+01    0.000000e+00
    0.000000e+00    1.700000e+01    0.000000e+00
    0.000000e+00    1.650000e+01    0.000000e+00
    0.000000e+00    1.600000e+01    0.000000e+00
    0.000000e+00    1.550000e+01    0.000000e+00
    0.000000e+00    1.500000e+01    0.000000e+00
    0.000000e+00    1.450000e+01    0.000000e+00
    0.000000e+00    1.400000e+01    0.000000e+00
    0.000000e+00    1.350000e+01    0.000000e+00
    0.000000e+00    1.300000e+01    0.000000e+00
    0.000000e+00    1.250000e+01    0.000000e+00
    0.000000e+00    1.200000e+01    0.000000e+00
    0.000000e+00    1.150000e+01    0.000000e+00
    0.000000e+00    1.100000e+01    0.000000e+00
    0.000000e+00    1.050000e+01    0.000000e+00
    0.000000e+00    1.000000e+01    0.000000e+00
    0.000000e+00    9.500000e+00    0.000000e+00
    0.000000e+00    9.000000e+00    0.000000e+00
    0.000000e+00    8.500000e+00    0.000000e+00
    0.000000e+00    8.000000e+00    0.000000e+00
    0.000000e+00    7.500000e+00    0.000000e+00
    0.000000e+00    7.000000e+00    0.000000e+00
    0.000000e+00    6.500000e+00    0.000000e+00
    0.000000e+00    6.000000e+00    0.000000e+00
    0.000000e+00    5.500000e+00    0.000000e+00
    0.000000e+00    5.000000e+00    0.000000e+00
    0.000000e+00    4.500000e+00    0.000000e+00
    0.000000e+00    4.000000e+00    0.000000e+00
    0.000000e+00    3.500000e+00    0.000000e+00
    0.000000e+00    3.000000e+00    0.000000e+00
    0.000000e+00    2.500000e+00    0.000000e+00
    0.000000e+00    2.000000e+00    0.000000e+00
    0.000000e+00    1.500000e+00    0.000000e+00
    0.000000e+00    1.000000e+00    0.000000e+00
    0.000000e+00    5.000000e-01    0.000000e+00
    5.000000e-01    0.000000e+00    0.000000e+00
    1.000000e+00    0.000000e+00    0.000000e+00
    1.500000e+00    0.000000e+00    0.000000e+00
    2.000000e+00    0.000000e+00    0.000000e+00
    2.500000e+00    0.000000e+00    0.000000e+00
    3.000000e+00    0.000000e+00    0.000000e+00
    3.500000e+00    0.000000e+00    0.000000e+00
    4.000000e+00    0.000000e+00    0.000000e+00
    4.500000e+00    0.000000e+00    0.000000e+00
    5.000000e+00    5.000000e-01    0.000000e+00
    5.000000e+00    1.000000e+00    0.000000e+00
    5.000000e+00    1.500000e+00    0.000000e+00
    5.000000e+00    2.000000e+00    0.000000e+00
    5.000000e+00    2.500000e+00    0.000000e+00
    5.000000e+00    3.000000e+00    0.000000e+00
    5.000000e+00    3.500000e+00    0.000000e+00
    5.000000e+00    4.000000e+00    0.000000e+00
    5.000000e+00    4.500000e+00    0.000000e+00
    5.000000e+00    5.000000e+00    0.000000e+00
    5.000000e+00    5.500000e+00    0.000000e+00
    5.000000e+00    6.000000e+00    0.000000e+00
    5.000000e+00    6.500000e+00    0.000000e+00
    5.000000e+00    7.000000e+00    0.000000e+00
    5.000000e+00    7.500000e+00    0.000000e+00
    5.000000e+00    8.000000e+00    0.000000e+00
    5.000000e+00    8.500000e+00    0.000000e+00
    5.000000e+00    9.000000e+00    0.000000e+00
    5.000000e+00    9.500000e+00    0.000000e+00
    5.000000e+00    1.000000e+01    0.000000e+00
    5.000000e+00    1.050000e+01    0.000000e+00
    5.000000e+00    1.100000e+01    0.000000e+00
    5.000000e+00    1.150000e+01    0.000000e+00
    5.000000e+00    1.200000e+01    0.000000e+00
    5.000000e+00    1.250000e+01    0.000000e+00
    5.000000e+00    1.300000e+01    0.000000e+00
    5.000000e+00    1.350000e+01    0.000000e+00
    5.000000e+00    1.400000e+01    0.000000e+00
    5.000000e+00    1.450000e+01    0.000000e+00
    5.000000e+00    1.500000e+01    0.000000e+00
    5.000000e+00    1.550000e+01    0.000000e+00
    5.000000e+00    1.600000e+01    0.000000e+00
    5.000000e+00    1.650000e+01    0.000000e+00
    5.000000e+00    1.700000e+01    0.000000e+00
    5.000000e+00    1.750000e+01    0.000000e+00
    5.000000e+00    1.800000e+01    0.000000e+00
    5.000000e+00    1.850000e+01    0.000000e+00
    5.000000e+00    1.900000e+01    0.000000e+00
    5.000000e+00    1.950000e+01    0.000000e+00
    5.000000e+00    2.000000e+01    0.000000e+00
    5.000000e+00    2.050000e+01    0.000000e+00
    5.000000e+00    2.100000e+01    0.000000e+00
    5.000000e+00    2.150000e+01    0.000000e+00
    5.000000e+00    2.200000e+01    0.000000e+00
    5.000000e+00    2.250000e+01    0.000000e+00
    5.000000e+00    2.300000e+01    0.000000e+00
    5.000000e+00    2.350000e+01    0.000000e+00
    5.000000e+00    2.400000e+01    0.000000e+00
    5.000000e+00    2.450000e+01    0.000000e+00
    5.000000e+00    2.500000e+01    0.000000e+00
    5.000000e+00    2.550000e+01    0.000000e+00
    5.000000e+00    2.600000e+01    0.000000e+00
[...]
POINT_DATA 2692
VECTORS displacement float
   -3.709108e-01   -4.910313e-03    0.000000e+00
   -4.090890e-01   -4.910171e-03    0.000000e+00
   -3.706075e-01   -4.337478e-02    0.000000e+00
    0.000000e+00    0.000000e+00    0.000000e+00
    0.000000e+00    0.000000e+00    0.000000e+00
   -8.340131e-02    9.177069e-03    0.000000e+00
   -9.997486e-02    2.011548e-02    0.000000e+00
   -1.083108e-01    2.133909e-03    0.000000e+00
   -1.015506e-01   -2.019419e-03    0.000000e+00
    0.000000e+00    0.000000e+00    0.000000e+00
    0.000000e+00    0.000000e+00    0.000000e+00
   -1.069549e-01    4.980815e-03    0.000000e+00
   -1.080491e-01    2.991941e-03    0.000000e+00
   -1.067822e-01    1.609771e-03    0.000000e+00
   -1.162413e-01    2.041662e-02    0.000000e+00
   -1.386815e-01    1.544930e-02    0.000000e+00
   -3.706072e-01    3.355596e-02    0.000000e+00
   -3.784293e-01   -4.910232e-03    0.000000e+00
   -3.860686e-01   -4.910080e-03    0.000000e+00
   -3.937410e-01   -4.910015e-03    0.000000e+00
   -4.014172e-01   -4.910132e-03    0.000000e+00
   -4.083536e-01   -1.238967e-02    0.000000e+00
   -4.061750e-01   -1.958597e-02    0.000000e+00
   -4.026355e-01   -2.622385e-02    0.000000e+00
   -3.978664e-01   -3.205084e-02    0.000000e+00
   -3.920467e-01   -3.684374e-02    0.000000e+00
   -3.853928e-01   -4.041604e-02    0.000000e+00
   -3.781560e-01   -4.262350e-02    0.000000e+00
   -3.706128e-01   -3.564118e-02    0.000000e+00
   -3.706258e-01   -2.793191e-02    0.000000e+00
   -3.706630e-01   -2.024460e-02    0.000000e+00
   -3.707501e-01   -1.256723e-02    0.000000e+00
   -3.628443e-01   -4.337073e-02    0.000000e+00
   -3.550587e-01   -4.334579e-02    0.000000e+00
   -3.472727e-01   -4.328593e-02    0.000000e+00
   -3.394950e-01   -4.319166e-02    0.000000e+00
   -3.317354e-01   -4.306375e-02    0.000000e+00
   -3.240036e-01   -4.290292e-02    0.000000e+00
   -3.163090e-01   -4.271230e-02    0.000000e+00
   -3.086566e-01   -4.248989e-02    0.000000e+00
   -3.010464e-01   -4.223709e-02    0.000000e+00
   -2.934968e-01   -4.196243e-02    0.000000e+00
   -2.860000e-01   -4.165088e-02    0.000000e+00
   -2.785723e-01   -4.131265e-02    0.000000e+00
   -2.712122e-01   -4.094408e-02    0.000000e+00
   -2.639315e-01   -4.054755e-02    0.000000e+00
   -2.567296e-01   -4.012069e-02    0.000000e+00
   -2.496194e-01   -3.966530e-02    0.000000e+00
   -2.425990e-01   -3.917800e-02    0.000000e+00
   -2.356838e-01   -3.866174e-02    0.000000e+00
   -2.288702e-01   -3.811433e-02    0.000000e+00
   -2.221744e-01   -3.753825e-02    0.000000e+00
   -2.155916e-01   -3.693269e-02    0.000000e+00
   -2.091382e-01   -3.629941e-02    0.000000e+00
   -2.028087e-01   -3.563672e-02    0.000000e+00
   -1.966206e-01   -3.494560e-02    0.000000e+00
   -1.905677e-01   -3.422297e-02    0.000000e+00
   -1.846693e-01   -3.347151e-02    0.000000e+00
   -1.789219e-01   -3.268766e-02    0.000000e+00
   -1.733325e-01   -3.186724e-02    0.000000e+00
   -1.679134e-01   -3.102304e-02    0.000000e+00
   -1.626657e-01   -3.014736e-02    0.000000e+00
   -1.576092e-01   -2.924201e-02    0.000000e+00
   -1.527382e-01   -2.830754e-02    0.000000e+00
   -1.480782e-01   -2.734791e-02    0.000000e+00
   -1.436209e-01   -2.636695e-02    0.000000e+00
   -1.393916e-01   -2.537545e-02    0.000000e+00
   -1.353720e-01   -2.438903e-02    0.000000e+00
   -1.315866e-01   -2.341171e-02    0.000000e+00
   -1.280100e-01   -2.245420e-02    0.000000e+00
   -1.246535e-01   -2.153787e-02    0.000000e+00
   -1.214836e-01   -2.067872e-02    0.000000e+00
   -1.184963e-01   -1.988372e-02    0.000000e+00
   -1.156579e-01   -1.916550e-02    0.000000e+00
   -1.129541e-01   -1.852551e-02    0.000000e+00
   -1.103488e-01   -1.797240e-02    0.000000e+00
   -1.078348e-01   -1.749744e-02    0.000000e+00
   -1.053621e-01   -1.710686e-02    0.000000e+00
   -1.029429e-01   -1.678113e-02    0.000000e+00
   -1.005297e-01   -1.651737e-02    0.000000e+00
   -9.812318e-02   -1.630885e-02    0.000000e+00
   -9.571076e-02   -1.613835e-02    0.000000e+00
   -9.328593e-02   -1.599657e-02    0.000000e+00
   -9.084813e-02   -1.587092e-02    0.000000e+00
   -8.839876e-02   -1.575374e-02    0.000000e+00
   -8.594181e-02   -1.563738e-02    0.000000e+00
   -8.348190e-02   -1.551713e-02    0.000000e+00
   -8.102523e-02   -1.539019e-02    0.000000e+00
   -7.857603e-02   -1.525499e-02    0.000000e+00
   -7.613971e-02   -1.511160e-02    0.000000e+00
   -7.371850e-02   -1.495996e-02    0.000000e+00
   -7.131651e-02   -1.480095e-02    0.000000e+00
   -6.893414e-02   -1.463464e-02    0.000000e+00
   -6.657498e-02   -1.446198e-02    0.000000e+00
   -6.423920e-02   -1.428283e-02    0.000000e+00
   -6.192695e-02   -1.409731e-02    0.000000e+00
   -5.964225e-02   -1.390985e-02    0.000000e+00
   -5.738347e-02   -1.371348e-02    0.000000e+00
   -5.515321e-02   -1.351281e-02    0.000000e+00
   -5.295099e-02   -1.330688e-02    0.000000e+00
   -5.077984e-02   -1.309609e-02    0.000000e+00
   -4.863825e-02   -1.287996e-02    0.000000e+00
   -4.652993e-02   -1.265876e-02    0.000000e+00
   -4.445308e-02   -1.243171e-02    0.000000e+00
   -4.241199e-02   -1.219949e-02    0.000000e+00
   -4.040454e-02   -1.196172e-02    0.000000e+00
   -3.843509e-02   -1.171894e-02    0.000000e+00
   -3.650116e-02   -1.147114e-02    0.000000e+00
   -3.460716e-02   -1.121856e-02    0.000000e+00
   -3.275070e-02   -1.096097e-02    0.000000e+00
   -3.093621e-02   -1.069843e-02    0.000000e+00
   -2.916123e-02   -1.043039e-02    0.000000e+00
   -2.743044e-02   -1.015746e-02    0.000000e+00
   -2.574207e-02   -9.878940e-03    0.000000e+00
   -2.409757e-02   -9.593612e-03    0.000000e+00
   -2.249888e-02   -9.304990e-03    0.000000e+00
   -2.094554e-02   -9.011151e-03    0.000000e+00
   -1.944155e-02   -8.712172e-03    0.000000e+00
   -1.798409e-02   -8.407832e-03    0.000000e+00
   -1.657849e-02   -8.098181e-03    0.000000e+00
   -1.522144e-02   -7.782828e-03    0.000000e+00
   -1.391851e-02   -7.462584e-03    0.000000e+00
   -1.266500e-02   -7.138433e-03    0.000000e+00
   -1.146895e-02   -6.808526e-03    0.000000e+00
   -1.032488e-02   -6.471594e-03    0.000000e+00
   -9.239836e-03   -6.130360e-03    0.000000e+00
   -8.208429e-03   -5.784255e-03    0.000000e+00
   -7.237368e-03   -5.433356e-03    0.000000e+00
   -6.322838e-03   -5.077040e-03    0.000000e+00
   -5.470883e-03   -4.715690e-03    0.000000e+00
   -4.678945e-03   -4.348483e-03    0.000000e+00
   -3.947457e-03   -3.974646e-03    0.000000e+00
   -3.280776e-03   -3.604429e-03    0.000000e+00
   -2.677607e-03   -3.220881e-03    0.000000e+00
   -2.139317e-03   -2.834971e-03    0.000000e+00
   -1.664894e-03   -2.445173e-03    0.000000e+00
   -1.258419e-03   -2.051840e-03    0.000000e+00
   -9.124281e-04   -1.654213e-03    0.000000e+00
   -6.290507e-04   -1.253670e-03    0.000000e+00
   -4.025418e-04   -8.477916e-04    0.000000e+00
   -2.109424e-04   -4.251811e-04    0.000000e+00
    0.000000e+00    0.000000e+00    0.000000e+00
    0.000000e+00    0.000000e+00    0.000000e+00
    0.000000e+00    0.000000e+00    0.000000e+00
    0.000000e+00    0.000000e+00    0.000000e+00
    0.000000e+00    0.000000e+00    0.000000e+00
    0.000000e+00    0.000000e+00    0.000000e+00
    0.000000e+00    0.000000e+00    0.000000e+00
    0.000000e+00    0.000000e+00    0.000000e+00
    0.000000e+00    0.000000e+00    0.000000e+00
   -1.290446e-04    2.911083e-04    0.000000e+00
   -2.822903e-04    5.965656e-04    0.000000e+00
   -4.811013e-04    8.886621e-04    0.000000e+00
   -7.484406e-04    1.176930e-03    0.000000e+00
   -1.084157e-03    1.461946e-03    0.000000e+00
   -1.488337e-03    1.742014e-03    0.000000e+00
   -1.959251e-03    2.016565e-03    0.000000e+00
   -2.498669e-03    2.286208e-03    0.000000e+00
   -3.103725e-03    2.554581e-03    0.000000e+00
   -3.770513e-03    2.807964e-03    0.000000e+00
   -4.500208e-03    3.065764e-03    0.000000e+00
   -5.290580e-03    3.314903e-03    0.000000e+00
   -6.144988e-03    3.557962e-03    0.000000e+00
   -7.058925e-03    3.795706e-03    0.000000e+00
   -8.030998e-03    4.028370e-03    0.000000e+00
   -9.060859e-03    4.256275e-03    0.000000e+00
   -1.014798e-02    4.478835e-03    0.000000e+00
   -1.129086e-02    4.696258e-03    0.000000e+00
   -1.248890e-02    4.908434e-03    0.000000e+00
   -1.374065e-02    5.115357e-03    0.000000e+00
   -1.504506e-02    5.316962e-03    0.000000e+00
   -1.640083e-02    5.513721e-03    0.000000e+00
   -1.780759e-02    5.705344e-03    0.000000e+00
   -1.926387e-02    5.892016e-03    0.000000e+00
   -2.076888e-02    6.072988e-03    0.000000e+00
   -2.232106e-02    6.247955e-03    0.000000e+00
   -2.392000e-02    6.416875e-03    0.000000e+00
   -2.556601e-02    6.581753e-03    0.000000e+00
   -2.725464e-02    6.746308e-03    0.000000e+00
   -2.898486e-02    6.901356e-03    0.000000e+00
   -3.075822e-02    7.050898e-03    0.000000e+00
   -3.257326e-02    7.196107e-03    0.000000e+00
   -3.442894e-02    7.335881e-03    0.000000e+00
   -3.632409e-02    7.470154e-03    0.000000e+00
   -3.825748e-02    7.599262e-03    0.000000e+00
   -4.022806e-02    7.722993e-03    0.000000e+00
   -4.223462e-02    7.841634e-03    0.000000e+00
   -4.427632e-02    7.955031e-03    0.000000e+00
   -4.635201e-02    8.063411e-03    0.000000e+00
   -4.846083e-02    8.166684e-03    0.000000e+00
   -5.060164e-02    8.264846e-03    0.000000e+00
   -5.277349e-02    8.357673e-03    0.000000e+00
   -5.497419e-02    8.444771e-03    0.000000e+00
   -5.720428e-02    8.526915e-03    0.000000e+00
   -5.946292e-02    8.605515e-03    0.000000e+00
   -6.174654e-02    8.675367e-03    0.000000e+00
   -6.405618e-02    8.744596e-03    0.000000e+00
   -6.638920e-02    8.807718e-03    0.000000e+00
   -6.874689e-02    8.866257e-03    0.000000e+00
   -7.112748e-02    8.921187e-03    0.000000e+00
   -7.353063e-02    8.973310e-03    0.000000e+00
   -7.595679e-02    9.023720e-03    0.000000e+00
   -7.840763e-02    9.073515e-03    0.000000e+00
   -8.088646e-02    9.124187e-03    0.000000e+00
   -8.591001e-02    9.472155e-03    0.000000e+00
   -8.840403e-02    1.024417e-02    0.000000e+00
   -9.082048e-02    1.145505e-02    0.000000e+00
   -9.314307e-02    1.301521e-02    0.000000e+00
   -9.524824e-02    1.482534e-02    0.000000e+00
   -9.714066e-02    1.672257e-02    0.000000e+00
   -9.870165e-02    1.852648e-02    0.000000e+00
   -1.009276e-01    2.152700e-02    0.000000e+00
   -1.018080e-01    2.274728e-02    0.000000e+00
   -1.026400e-01    2.377435e-02    0.000000e+00
   -1.034219e-01    2.463286e-02    0.000000e+00
   -1.042020e-01    2.532813e-02    0.000000e+00
   -1.049091e-01    2.586960e-02    0.000000e+00
   -1.056055e-01    2.625415e-02    0.000000e+00
   -1.062363e-01    2.650739e-02    0.000000e+00
   -1.068466e-01    2.661747e-02    0.000000e+00
   -1.074325e-01    2.660630e-02    0.000000e+00
   -1.079683e-01    2.648024e-02    0.000000e+00
   -1.084624e-01    2.624019e-02    0.000000e+00
   -1.089347e-01    2.589390e-02    0.000000e+00
   -1.093639e-01    2.545137e-02    0.000000e+00
   -1.097647e-01    2.491298e-02    0.000000e+00
   -1.101285e-01    2.429410e-02    0.000000e+00
   -1.104544e-01    2.359858e-02    0.000000e+00
   -1.107466e-01    2.283084e-02    0.000000e+00
   -1.110017e-01    2.200409e-02    0.000000e+00
   -1.112180e-01    2.111990e-02    0.000000e+00
   -1.114106e-01    2.018687e-02    0.000000e+00
   -1.115625e-01    1.921077e-02    0.000000e+00
   -1.116822e-01    1.819503e-02    0.000000e+00
   -1.117654e-01    1.715744e-02    0.000000e+00
   -1.118115e-01    1.609811e-02    0.000000e+00
   -1.118211e-01    1.502238e-02    0.000000e+00
   -1.118013e-01    1.393896e-02    0.000000e+00
   -1.117455e-01    1.286183e-02    0.000000e+00
   -1.116528e-01    1.178286e-02    0.000000e+00
   -1.115267e-01    1.072420e-02    0.000000e+00
   -1.113628e-01    9.681384e-03    0.000000e+00
   -1.111671e-01    8.666134e-03    0.000000e+00
   -1.109429e-01    7.691512e-03    0.000000e+00
   -1.106777e-01    6.746530e-03    0.000000e+00
   -1.103876e-01    5.855001e-03    0.000000e+00
   -1.100544e-01    5.003272e-03    0.000000e+00
   -1.096963e-01    4.213399e-03    0.000000e+00
   -1.092875e-01    3.464563e-03    0.000000e+00
   -1.088433e-01    2.774948e-03    0.000000e+00
   -1.076754e-01    1.539954e-03    0.000000e+00
   -1.070484e-01    1.019763e-03    0.000000e+00
   -1.063610e-01    5.864245e-04    0.000000e+00
   -1.056373e-01    1.591537e-04    0.000000e+00
   -1.047815e-01   -2.707298e-04    0.000000e+00
   -1.038385e-01   -7.822357e-04    0.000000e+00
   -1.027711e-01   -1.338309e-03    0.000000e+00
   -1.002230e-01   -2.714050e-03    0.000000e+00
   -9.882630e-02   -3.323573e-03    0.000000e+00
   -9.735359e-02   -3.886873e-03    0.000000e+00
   -9.580021e-02   -4.418741e-03    0.000000e+00
   -9.416505e-02   -4.925113e-03    0.000000e+00
   -9.244890e-02   -5.407304e-03    0.000000e+00
   -9.065457e-02   -5.865749e-03    0.000000e+00
   -8.878260e-02   -6.302224e-03    0.000000e+00
   -8.683587e-02   -6.720441e-03    0.000000e+00
   -8.482634e-02   -7.107729e-03    0.000000e+00
   -8.274674e-02   -7.480039e-03    0.000000e+00
   -8.061306e-02   -7.824701e-03    0.000000e+00
   -7.842218e-02   -8.145043e-03    0.000000e+00
   -7.618120e-02   -8.442135e-03    0.000000e+00
   -7.389494e-02   -8.715607e-03    0.000000e+00
   -7.156802e-02   -8.965456e-03    0.000000e+00
   -6.920514e-02   -9.191232e-03    0.000000e+00
   -6.681131e-02   -9.393014e-03    0.000000e+00
   -6.439134e-02   -9.570768e-03    0.000000e+00
   -6.195003e-02   -9.724539e-03    0.000000e+00
   -5.949226e-02   -9.854317e-03    0.000000e+00
   -5.702280e-02   -9.960212e-03    0.000000e+00
   -5.454638e-02   -1.004218e-02    0.000000e+00
   -5.206756e-02   -1.010012e-02    0.000000e+00
   -4.959156e-02   -1.013393e-02    0.000000e+00
   -4.712378e-02   -1.014377e-02    0.000000e+00
   -4.466910e-02   -1.013009e-02    0.000000e+00
   -4.222799e-02   -1.009156e-02    0.000000e+00
   -3.981106e-02   -1.003026e-02    0.000000e+00
   -3.741870e-02   -9.944317e-03    0.000000e+00
   -3.505907e-02   -9.835084e-03    0.000000e+00
   -3.273487e-02   -9.701089e-03    0.000000e+00
   -3.045205e-02   -9.543236e-03    0.000000e+00
   -2.821547e-02   -9.361817e-03    0.000000e+00
   -2.602915e-02   -9.156417e-03    0.000000e+00
   -2.389809e-02   -8.927217e-03    0.000000e+00
   -2.182697e-02   -8.673782e-03    0.000000e+00
   -1.982126e-02   -8.396600e-03    0.000000e+00
   -1.788524e-02   -8.095131e-03    0.000000e+00
   -1.602424e-02   -7.769639e-03    0.000000e+00
   -1.424277e-02   -7.419931e-03    0.000000e+00
   -1.254539e-02   -7.046674e-03    0.000000e+00
   -1.093432e-02   -6.650443e-03    0.000000e+00
   -9.422201e-03   -6.228755e-03    0.000000e+00
   -8.003883e-03   -5.778168e-03    0.000000e+00
   -6.692016e-03   -5.319105e-03    0.000000e+00
   -5.481060e-03   -4.819206e-03    0.000000e+00
   -4.386507e-03   -4.302904e-03    0.000000e+00
   -3.411826e-03   -3.763971e-03    0.000000e+00
   -2.557189e-03   -3.200149e-03    0.000000e+00
   -1.828546e-03   -2.612413e-03    0.000000e+00
   -1.225821e-03   -2.001098e-03    0.000000e+00
   -7.450391e-04   -1.364576e-03    0.000000e+00
   -3.626934e-04   -6.840132e-04    0.000000e+00
    0.000000e+00    0.000000e+00    0.000000e+00
    0.000000e+00    0.000000e+00    0.000000e+00
    0.000000e+00    0.000000e+00    0.000000e+00
    0.000000e+00    0.000000e+00    0.000000e+00
    0.000000e+00    0.000000e+00    0.000000e+00
    0.000000e+00    0.000000e+00    0.000000e+00
    0.000000e+00    0.000000e+00    0.000000e+00
    0.000000e+00    0.000000e+00    0.000000e+00
    0.000000e+00    0.000000e+00    0.000000e+00
   -4.298568e-04    8.168465e-04    0.000000e+00
   -8.734085e-04    1.627570e-03    0.000000e+00
   -1.373237e-03    2.372697e-03    0.000000e+00
   -1.991670e-03    3.088684e-03    0.000000e+00
   -2.735027e-03    3.786142e-03    0.000000e+00
   -3.589657e-03    4.464184e-03    0.000000e+00
   -4.569439e-03    5.120519e-03    0.000000e+00
   -5.661262e-03    5.753365e-03    0.000000e+00
   -6.868161e-03    6.367402e-03    0.000000e+00
   -8.178653e-03    6.943545e-03    0.000000e+00
   -9.599557e-03    7.510723e-03    0.000000e+00
   -1.111388e-02    8.051266e-03    0.000000e+00
   -1.272104e-02    8.566038e-03    0.000000e+00
   -1.442108e-02    9.057490e-03    0.000000e+00
   -1.620144e-02    9.523868e-03    0.000000e+00
   -1.806444e-02    9.967632e-03    0.000000e+00
   -1.999829e-02    1.038804e-02    0.000000e+00
   -2.200540e-02    1.078531e-02    0.000000e+00
   -2.407442e-02    1.115761e-02    0.000000e+00
   -2.620676e-02    1.150600e-02    0.000000e+00
   -2.839253e-02    1.182864e-02    0.000000e+00
   -3.063090e-02    1.212836e-02    0.000000e+00
   -3.291273e-02    1.240350e-02    0.000000e+00
   -3.523710e-02    1.265573e-02    0.000000e+00
   -3.759617e-02    1.288317e-02    0.000000e+00
   -3.998751e-02    1.308743e-02    0.000000e+00
   -4.240451e-02    1.326675e-02    0.000000e+00
   -4.484542e-02    1.342353e-02    0.000000e+00
   -4.730110e-02    1.355615e-02    0.000000e+00
   -4.976906e-02    1.366381e-02    0.000000e+00
   -5.224521e-02    1.374847e-02    0.000000e+00
   -5.472371e-02    1.380824e-02    0.000000e+00
   -5.720010e-02    1.384507e-02    0.000000e+00
   -5.966977e-02    1.385703e-02    0.000000e+00
   -6.212711e-02    1.384587e-02    0.000000e+00
   -6.456883e-02    1.380997e-02    0.000000e+00
   -6.698850e-02    1.375074e-02    0.000000e+00
   -6.938324e-02    1.366682e-02    0.000000e+00
   -7.174559e-02    1.355972e-02    0.000000e+00
   -7.407352e-02    1.342791e-02    0.000000e+00
   -7.635913e-02    1.327317e-02    0.000000e+00
   -7.860176e-02    1.309347e-02    0.000000e+00
   -8.079226e-02    1.289033e-02    0.000000e+00
   -8.292776e-02    1.266131e-02    0.000000e+00
   -8.500838e-02    1.240639e-02    0.000000e+00
   -8.701747e-02    1.213627e-02    0.000000e+00
   -8.896172e-02    1.183225e-02    0.000000e+00
   -9.082743e-02    1.150583e-02    0.000000e+00
   -9.261493e-02    1.115402e-02    0.000000e+00
   -9.431243e-02    1.077866e-02    0.000000e+00
   -9.592015e-02    1.037777e-02    0.000000e+00
   -9.742370e-02    9.954402e-03    0.000000e+00
   -9.882542e-02    9.509377e-03    0.000000e+00
   -1.001090e-01    9.047561e-03    0.000000e+00
   -1.012761e-01    8.570181e-03    0.000000e+00
   -1.023161e-01    8.088171e-03    0.000000e+00
   -1.032350e-01    7.612015e-03    0.000000e+00
   -1.040262e-01    7.147125e-03    0.000000e+00
   -1.047039e-01    6.704865e-03    0.000000e+00
   -1.052675e-01    6.294237e-03    0.000000e+00
   -1.057364e-01    5.926072e-03    0.000000e+00
   -1.061203e-01    5.604969e-03    0.000000e+00
   -1.064401e-01    5.339387e-03    0.000000e+00
   -1.067084e-01    5.129679e-03    0.000000e+00
   -1.071935e-01    4.858132e-03    0.000000e+00
   -1.074251e-01    4.712414e-03    0.000000e+00
   -1.076425e-01    4.522265e-03    0.000000e+00
   -1.078366e-01    4.285129e-03    0.000000e+00
   -1.079892e-01    4.010519e-03    0.000000e+00
   -1.080824e-01    3.698556e-03    0.000000e+00
   -1.081113e-01    3.352171e-03    0.000000e+00
   -1.079053e-01    2.620067e-03    0.000000e+00
   -1.076996e-01    2.275236e-03    0.000000e+00
   -1.074400e-01    1.981718e-03    0.000000e+00
   -1.071322e-01    1.754734e-03    0.000000e+00
   -1.064004e-01    1.560108e-03    0.000000e+00
   -1.059968e-01    1.614455e-03    0.000000e+00
   -1.055830e-01    1.778736e-03    0.000000e+00
   -1.051687e-01    2.053396e-03    0.000000e+00
   -1.047646e-01    2.437044e-03    0.000000e+00
   -1.043784e-01    2.925642e-03    0.000000e+00
   -1.040185e-01    3.510199e-03    0.000000e+00
   -1.036886e-01    4.183174e-03    0.000000e+00
   -1.033926e-01    4.934392e-03    0.000000e+00
   -1.031308e-01    5.754989e-03    0.000000e+00
   -1.029052e-01    6.635639e-03    0.000000e+00
   -1.027153e-01    7.568215e-03    0.000000e+00