# vtk DataFile Version 4.0
output of FEM program
ASCII

DATASET UNSTRUCTURED_GRID
POINTS 2692 float
2.5 55 0
2.5 57.5 0
0 55 0
0 0 0
5 0 0
5 27.5 0
7.5 30 0
27.5 30 0
30 27.5 0
30 0 0
35 0 0
35 32.5 0
32.5 35 0
30 35 0
7.5 35 0
5 37.5 0
5 55 0
2.5 55.5 0
2.5 56 0
2.5 56.5 0
2.5 57 0
2.01227 57.452 0
1.54329 57.3097 0
1.11107 57.0787 0
0.732233 56.7678 0
0.421326 56.3889 0
0.190301 55.9567 0
0.0480368 55.4877 0
0.5 55 0
1 55 0
1.5 55 0
2 55 0
0 54.5 0
0 54 0
0 53.5 0
0 53 0
0 52.5 0
0 52 0
0 51.5 0
0 51 0
0 50.5 0
0 50 0
0 49.5 0
0 49 0
0 48.5 0
0 48 0
0 47.5 0
0 47 0
0 46.5 0
0 46 0
0 45.5 0
0 45 0
0 44.5 0
0 44 0
0 43.5 0
0 43 0
0 42.5 0
0 42 0
0 41.5 0
0 41 0
0 40.5 0
0 40 0
0 39.5 0
0 39 0
0 38.5 0
0 38 0
0 37.5 0
0 37 0
0 36.5 0
0 36 0
0 35.5 0
0 35 0
0 34.5 0
0 34 0
0 33.5 0
0 33 0
0 32.5 0
0 32 0
0 31.5 0
0 31 0
0 30.5 0
0 30 0
0 29.5 0
0 29 0
0 28.5 0
0 28 0
0 27.5 0
0 27 0
0 26.5 0
0 26 0
0 25.5 0
0 25 0
0 24.5 0
0 24 0
0 23.5 0
0 23 0
0 22.5 0
0 22 0
0 21.5 0
0 21 0
0 20.5 0
0 20 0
0 19.5 0
0 19 0
0 18.5 0
0 18 0
0 17.5 0
0 17 0
0 16.5 0
0 16 0
0 15.5 0
0 15 0
0 14.5 0
0 14 0
0 13.5 0
0 13 0
0 12.5 0
0 12 0
0 11.5 0
0 11 0
0 10.5 0
0 10 0
0 9.5 0
0 9 0
0 8.5 0
0 8 0
0 7.5 0
0 7 0
0 6.5 0
0 6 0
0 5.5 0
0 5 0
0 4.5 0
0 4 0
0 3.5 0
0 3 0
0 2.5 0
0 2 0
0 1.5 0
0 1 0
0 0.5 0
0.5 0 0
1 0 0
1.5 0 0
2 0 0
2.5 0 0
3 0 0
3.5 0 0
4 0 0
4.5 0 0
5 0.5 0
5 1 0
5 1.5 0
5 2 0
5 2.5 0
5 3 0
5 3.5 0
5 4 0
5 4.5 0
5 5 0
5 5.5 0
5 6 0
5 6.5 0
5 7 0
5 7.5 0
5 8 0
5 8.5 0
5 9 0
5 9.5 0
5 10 0
5 10.5 0
5 11 0
5 11.5 0
5 12 0
5 12.5 0
5 13 0
5 13.5 0
5 14 0
5 14.5 0
5 15 0
5 15.5 0
5 16 0
5 16.5 0
5 17 0
5 17.5 0
5 18 0
5 18.5 0
5 19 0
5 19.5 0
5 20 0
5 20.5 0
5 21 0
5 21.5 0
5 22 0
5 22.5 0
5 23 0
5 23.5 0
5 24 0
5 24.5 0
5 25 0
5 25.5 0
5 26 0
5 26.5 0
5 27 0
5.04804 27.9877 0
5.1903 28.4567 0
5.42133 28.8889 0
5.73223 29.2678 0
6.11107 29.5787 0
6.54329 29.8097 0
7.01227 29.952 0
8 30 0
8.5 30 0
9 30 0
9.5 30 0
10 30 0
10.5 30 0
11 30 0
11.5 30 0
12 30 0
12.5 30 0
13 30 0
13.5 30 0
14 30 0
14.5 30 0
15 30 0
15.5 30 0
16 30 0
16.5 30 0
17 30 0
17.5 30 0
18 30 0
18.5 30 0
19 30 0
19.5 30 0
20 30 0
20.5 30 0
21 30 0
21.5 30 0
22 30 0
22.5 30 0
23 30 0
23.5 30 0
24 30 0
24.5 30 0
25 30 0
25.5 30 0
26 30 0
26.5 30 0
27 30 0
27.9877 29.952 0
28.4567 29.8097 0
28.8889 29.5787 0
29.2678 29.2678 0
29.5787 28.8889 0
29.8097 28.4567 0
29.952 27.9877 0
30 27 0
30 26.5 0
30 26 0
30 25.5 0
30 25 0
30 24.5 0
30 24 0
30 23.5 0
30 23 0
30 22.5 0
30 22 0
30 21.5 0
30 21 0
30 20.5 0
30 20 0
30 19.5 0
30 19 0
30 18.5 0
30 18 0
30 17.5 0
30 17 0
30 16.5 0
30 16 0
30 15.5 0
30 15 0
30 14.5 0
30 14 0
30 13.5 0
30 13 0
30 12.5 0
30 12 0
30 11.5 0
30 11 0
30 10.5 0
30 10 0
30 9.5 0
30 9 0
30 8.5 0
30 8 0
30 7.5 0
30 7 0
30 6.5 0
30 6 0
30 5.5 0
30 5 0
30 4.5 0
30 4 0
30 3.5 0
30 3 0
30 2.5 0
30 2 0
30 1.5 0
30 1 0
30 0.5 0
30.5 0 0
31 0 0
31.5 0 0
32 0 0
32.5 0 0
33 0 0
33.5 0 0
34 0 0
34.5 0 0
35 0.5 0
35 1 0
35 1.5 0
35 2 0
35 2.5 0
35 3 0
35 3.5 0
35 4 0
35 4.5 0
35 5 0
35 5.5 0
35 6 0
35 6.5 0
35 7 0
35 7.5 0
35 8 0
35 8.5 0
35 9 0
35 9.5 0
35 10 0
35 10.5 0
35 11 0
35 11.5 0
35 12 0
35 12.5 0
35 13 0
35 13.5 0
35 14 0
35 14.5 0
35 15 0
35 15.5 0
35 16 0
35 16.5 0
35 17 0
35 17.5 0
35 18 0
35 18.5 0
35 19 0
35 19.5 0
35 20 0
35 20.5 0
35 21 0
35 21.5 0
35 22 0
35 22.5 0
35 23 0
35 23.5 0
35 24 0
35 24.5 0
35 25 0
35 25.5 0
35 26 0
35 26.5 0
35 27 0
35 27.5 0
35 28 0
35 28.5 0
35 29 0
35 29.5 0
35 30 0
35 30.5 0
35 31 0
35 31.5 0
35 32 0
34.952 32.9877 0
34.8097 33.4567 0
34.5787 33.8889 0
34.2678 34.2678 0
33.8889 34.5787 0
33.4567 34.8097 0
32.9877 34.952 0
32 35 0
31.5 35 0
31 35 0
30.5 35 0
29.5 35 0
29 35 0
28.5 35 0
28 35 0
27.5 35 0
27 35 0
26.5 35 0
26 35 0
25.5 35 0
25 35 0
24.5 35 0
24 35 0
23.5 35 0
23 35 0
22.5 35 0
22 35 0
21.5 35 0
21 35 0
20.5 35 0
20 35 0
19.5 35 0
19 35 0
18.5 35 0
18 35 0
17.5 35 0
17 35 0
16.5 35 0
16 35 0
15.5 35 0
15 35 0
14.5 35 0
14 35 0
13.5 35 0
13 35 0
12.5 35 0
12 35 0
11.5 35 0
11 35 0
10.5 35 0
10 35 0
9.5 35 0
9 35 0
8.5 35 0
8 35 0
7.01227 35.048 0
6.54329 35.1903 0
6.11107 35.4213 0
5.73223 35.7322 0
5.42133 36.1111 0
5.1903 36.5433 0
5.04804 37.0123 0
5 38 0
5 38.5 0
5 39 0
5 39.5 0
5 40 0
5 40.5 0
5 41 0
5 41.5 0
5 42 0
5 42.5 0
5 43 0
5 43.5 0
5 44 0
5 44.5 0
5 45 0
5 45.5 0
5 46 0
5 46.5 0
5 47 0
5 47.5 0
5 48 0
5 48.5 0
5 49 0
5 49.5 0
5 50 0
5 50.5 0
5 51 0
5 51.5 0
5 52 0
5 52.5 0
5 53 0
5 53.5 0
5 54 0
5 54.5 0
4.5 55 0
4 55 0
3.5 55 0
3 55 0
4.95196 55.4877 0
4.8097 55.9567 0
4.57867 56.3889 0
4.26777 56.7678 0
3.88893 57.0787 0
3.45671 57.3097 0
2.98773 57.452 0
1.13111 56.5809 0
0.644542 56.0651 0
0.681022 55.5775 0
1.94447 56.8156 0
2.03061 56.2088 0
1.26781 55.4837 0
1.45712 56.8359 0
0.807857 56.3698 0
2.05773 55.6646 0
1.10143 56.0489 0
1.5478 56.3935 0
1.68952 55.4038 0
1.61582 55.8672 0
0.95443 54.0492 0
1.97917 54.03 0
3.02896 53.9414 0
4.04004 54.0788 0
0.901748 52.9 0
2.02525 52.8856 0
3.04799 52.8804 0
4.10359 52.9467 0
0.936698 51.9518 0
2.05596 51.9216 0
3.16344 51.8559 0
4.10906 51.9235 0
0.945692 50.864 0
2.01782 50.8503 0
3.17681 50.8771 0
4.13969 50.8128 0
0.94826 49.6311 0
2.02401 49.6253 0
3.02651 49.7934 0
4.11105 49.6852 0
0.959336 48.5419 0
2.05829 48.6202 0
3.2315 48.6362 0
4.13241 48.5534 0
0.963902 47.5091 0
2.17746 47.4773 0
3.1561 47.6465 0
4.12043 47.5536 0
0.919917 46.5009 0
2.04018 46.455 0
3.17804 46.5605 0
4.10672 46.5237 0
0.903493 45.4999 0
2.02474 45.5548 0
3.1713 45.4593 0
4.10537 45.4867 0
0.942729 44.4956 0
2.13706 44.5527 0
3.11857 44.3461 0
4.11542 44.4468 0
0.981854 43.4665 0
2.16588 43.466 0
3.19689 43.3088 0
4.14544 43.4148 0
0.959461 42.4204 0
2.05299 42.3258 0
3.08698 42.3004 0
4.1213 42.3258 0
0.934498 41.2519 0
2.04803 41.255 0
3.03095 41.3005 0
4.04891 41.2296 0
0.96345 40.0822 0
2.06717 40.1709 0
3.19482 40.1088 0
4.10326 40.0747 0
0.983734 39.0383 0
2.15657 39.0322 0
3.17349 39.1536 0
4.1264 39.0719 0
0.960187 38.0171 0
2.04183 38.0297 0
3.14258 38.1288 0
4.11084 38.0453 0
1.03534 36.9317 0
2.13441 36.9878 0
3.12355 37.1383 0
4.02133 37.0063 0
0.917553 35.9574 0
2.02806 35.9321 0
3.09574 35.931 0
4.1036 35.9132 0
0.957554 34.9818 0
2.04324 34.963 0
3.13793 34.8097 0
4.10618 35.0211 0
5.16173 34.9474 0
6.13583 34.8884 0
0.956803 33.9582 0
2.03186 33.894 0
3.1748 33.8926 0
4.18472 33.8691 0
5.16107 33.8307 0
6.15593 33.7729 0
7.15681 34.003 0
8.19638 33.8416 0
9.23603 33.7327 0
10.262 33.7501 0
11.2815 33.7391 0
12.3331 33.8169 0
13.3538 33.8247 0
14.4904 33.8852 0
15.4764 33.8476 0
16.4537 33.8365 0
17.4886 33.7377 0
18.521 33.7403 0
19.5519 33.8317 0
20.5426 33.8506 0
21.5516 33.8587 0
22.5542 33.8913 0
23.6926 33.817 0
24.7315 33.7943 0
25.7528 33.7922 0
26.77 33.8211 0
27.7463 33.7475 0
28.7891 33.7333 0
29.8394 33.8158 0
30.8459 33.8148 0
31.9159 33.8817 0
32.9426 33.9588 0
34.0611 33.8217 0
0.949217 32.8695 0
2.04099 32.8944 0
3.09014 32.8919 0
4.15192 32.778 0
5.15575 32.7557 0
6.12918 32.7316 0
7.16545 32.7451 0
8.24389 32.7904 0
9.23193 32.8098 0
10.2855 32.8565 0
11.2819 32.8889 0
12.3166 32.848 0
13.3492 32.8457 0
14.4126 32.8208 0
15.4573 32.7962 0
16.5375 32.8126 0
17.5175 32.7711 0
18.546 32.7389 0
19.5906 32.7747 0
20.5759 32.7775 0
21.5968 32.7843 0
22.6286 32.802 0
23.6551 32.8022 0
24.708 32.7025 0
25.7601 32.7772 0
26.7637 32.7587 0
27.706 32.8173 0
28.8469 32.8417 0
29.8551 32.8131 0
30.8793 32.7146 0
31.891 32.8235 0
32.8836 32.8501 0
34.0934 32.8768 0
0.946976 31.6354 0
2.03952 31.6165 0
3.07282 31.6212 0
4.02136 31.6396 0
5.23045 31.6601 0
6.12294 31.7072 0
7.18506 31.6671 0
8.13828 31.8342 0
9.28946 31.7633 0
10.31 31.717 0
11.2831 31.7235 0
12.289 31.7343 0
13.3359 31.7196 0
14.3924 31.702 0
15.4382 31.6997 0
16.4642 31.6834 0
17.507 31.5839 0
18.5674 31.7662 0
19.5843 31.6932 0
20.5917 31.6734 0
21.6336 31.6876 0
22.6588 31.7059 0
23.6599 31.713 0
24.701 31.79 0
25.7467 31.7026 0
26.7284 31.688 0
27.8166 31.7643 0
28.904 31.6757 0
29.8412 31.6997 0
30.9297 31.6827 0
31.9697 31.7663 0
32.9463 31.7604 0
34.0667 31.7364 0
0.955037 30.5558 0
2.03208 30.6457 0
3.08575 30.6448 0
4.15444 30.712 0
5.27723 30.5587 0
6.14089 30.5757 0
7.08783 30.7021 0
8.19701 30.5306 0
9.30569 30.5714 0
10.2796 30.5317 0
11.2807 30.536 0
12.2749 30.6622 0
13.406 30.5809 0
14.4449 30.5789 0
15.4496 30.7262 0
16.4409 30.7351 0
17.4921 30.6689 0
18.5463 30.5862 0
19.5591 30.7179 0
20.5677 30.5791 0
21.7241 30.6592 0
22.6957 30.6899 0
23.7068 30.5368 0
24.7293 30.5342 0
25.7452 30.5334 0
26.7807 30.5514 0
27.8474 30.6614 0
28.8428 30.6507 0
29.7867 30.566 0
30.9116 30.6772 0
31.9258 30.7145 0
32.9341 30.6533 0
34.0384 30.5637 0
0.984231 29.5289 0
2.08659 29.6383 0
3.15446 29.6683 0
4.20444 29.6461 0
5.24077 29.5984 0
29.7898 29.6066 0
30.8646 29.7543 0
31.8289 29.6297 0
32.9487 29.502 0
34.0371 29.5049 0
0.957008 28.4964 0
2.04591 28.4069 0
3.12988 28.5018 0
4.10798 28.5791 0
0.926194 27.4974 0
2.07632 27.467 0
3.16579 27.5082 0
4.12984 27.5107 0
0.948412 26.4964 0
2.08053 26.4591 0
3.21908 26.4938 0
4.12164 26.4759 0
0.973586 25.4708 0
2.02563 25.4066 0
3.13883 25.3854 0
4.12112 25.4413 0
0.954468 24.4456 0
2.03669 24.3647 0
3.16899 24.385 0
4.11231 24.4241 0
0.946738 23.3632 0
2.01708 23.3501 0
3.17627 23.3821 0
4.13956 23.3128 0
0.948268 22.1311 0
2.024 22.1255 0
3.0264 22.2939 0
4.11087 22.1851 0
0.959337 21.0419 0
2.05829 21.1202 0
3.23149 21.1362 0
4.1324 21.0534 0
0.963903 20.0091 0
2.17746 19.9773 0
3.1561 20.1465 0
4.12043 20.0536 0
0.919917 19.0009 0
2.04018 18.955 0
3.17804 19.0605 0
4.10667 19.0237 0
0.903493 17.9999 0
2.02473 18.0548 0
3.1713 17.9593 0
4.10544 17.9865 0
0.942729 16.9956 0
2.13706 17.0527 0
3.11857 16.8461 0
4.11549 16.9468 0
0.981856 15.9665 0
2.16588 15.966 0
3.19696 15.8085 0
4.14554 15.9148 0
0.959472 14.9204 0
2.05331 14.8242 0
3.0904 14.7926 0
4.12497 14.8251 0
0.934442 13.7517 0
2.04257 13.748 0
3.05993 13.7176 0
4.07508 13.7432 0
0.96351 12.5821 0
2.05788 12.6725 0
3.15959 12.6477 0
4.10293 12.5926 0
0.983814 11.538 0
2.15606 11.5309 0
3.17075 11.6561 0
4.12606 11.5729 0
0.95997 10.5167 0
[...]
POINT_DATA 2692
VECTORS displacement float
-0.373278 -0.0049445 0
-0.411612 -0.00494438 0
-0.372975 -0.0435656 0
0 0 0
0 0 0
-0.0843728 0.00924892 0
-0.101068 0.0202402 0
-0.109445 0.0021171 0
-0.102608 -0.00205708 0
0 0 0
0 0 0
-0.108092 0.00503742 0
-0.109212 0.00301478 0
-0.107933 0.00160421 0
-0.117434 0.0205417 0
-0.14001 0.0155282 0
-0.372975 0.0336779 0
-0.380828 -0.00494439 0
-0.388499 -0.00494427 0
-0.396202 -0.00494425 0
-0.403909 -0.00494437 0
-0.410874 -0.0124543 0
-0.408687 -0.0196798 0
-0.405133 -0.0263448 0
-0.400344 -0.0321956 0
-0.394501 -0.037008 0
-0.38782 -0.0405947 0
-0.380554 -0.0428112 0
-0.37298 -0.0358007 0
-0.372993 -0.0280601 0
-0.37303 -0.0203415 0
-0.373117 -0.0126328 0
-0.36518 -0.0435617 0
-0.357363 -0.0435367 0
-0.349546 -0.043477 0
-0.341737 -0.0433828 0
-0.333946 -0.0432549 0
-0.326183 -0.0430941 0
-0.318457 -0.0429035 0
-0.310773 -0.042681 0
-0.303131 -0.042428 0
-0.29555 -0.0421531 0
-0.288022 -0.0418413 0
-0.280562 -0.0415026 0
-0.273171 -0.0411335 0
-0.265859 -0.0407364 0
-0.258626 -0.0403088 0
-0.251484 -0.0398526 0
-0.244433 -0.0393644 0
-0.237487 -0.0388472 0
-0.230643 -0.0382987 0
-0.223917 -0.0377215 0
-0.217304 -0.0371146 0
-0.21082 -0.0364798 0
-0.204461 -0.0358155 0
-0.198243 -0.0351225 0
-0.192161 -0.0343979 0
-0.186234 -0.0336443 0
-0.180459 -0.0328581 0
-0.174842 -0.0320351 0
-0.169395 -0.0311882 0
-0.164121 -0.0303097 0
-0.159038 -0.0294013 0
-0.154142 -0.0284636 0
-0.149457 -0.0275006 0
-0.144976 -0.0265161 0
-0.140723 -0.0255209 0
-0.136681 -0.0245307 0
-0.132874 -0.0235496 0
-0.129277 -0.0225883 0
-0.125901 -0.0216684 0
-0.122712 -0.0208059 0
-0.119707 -0.0200079 0
-0.116851 -0.0192869 0
-0.11413 -0.0186446 0
-0.111509 -0.0180897 0
-0.108979 -0.0176133 0
-0.10649 -0.017222 0
-0.104055 -0.0168959 0
-0.101625 -0.0166323 0
-0.0992024 -0.0164244 0
-0.0967732 -0.0162548 0
-0.094331 -0.0161142 0
-0.0918755 -0.0159899 0
-0.0894078 -0.0158743 0
-0.086932 -0.0157595 0
-0.0844526 -0.0156408 0
-0.081976 -0.0155154 0
-0.0795063 -0.0153817 0
-0.0770491 -0.0152397 0
-0.0746066 -0.0150893 0
-0.0721829 -0.0149313 0
-0.0697786 -0.0147659 0
-0.0673972 -0.0145941 0
-0.0650388 -0.0144156 0
-0.0627039 -0.0142306 0
-0.0603962 -0.0140434 0
-0.0581144 -0.0138472 0
-0.0558609 -0.0136466 0
-0.0536355 -0.0134406 0
-0.051441 -0.0132296 0
-0.049276 -0.0130131 0
-0.0471443 -0.0127914 0
-0.0450441 -0.0125637 0
-0.0429797 -0.0123307 0
-0.040949 -0.012092 0
-0.0389564 -0.0118481 0
-0.0369994 -0.0115991 0
-0.0350826 -0.0113451 0
-0.0332035 -0.011086 0
-0.0313666 -0.0108218 0
-0.0295695 -0.010552 0
-0.0278168 -0.0102772 0
-0.0261068 -0.00999657 0
-0.024441 -0.009709 0
-0.0228214 -0.00941801 0
-0.0212476 -0.00912164 0
-0.0197235 -0.00881998 0
-0.0182464 -0.00851282 0
-0.0168217 -0.00820019 0
-0.015446 -0.00788172 0
-0.014125 -0.00755821 0
-0.012854 -0.00723065 0
-0.011641 -0.0068972 0
-0.0104807 -0.00655655 0
-0.00938003 -0.00621147 0
-0.00833368 -0.00586137 0
-0.00734843 -0.00550634 0
-0.00642042 -0.00514574 0
-0.0055558 -0.00477997 0
-0.00475199 -0.00440818 0
-0.00400943 -0.00402959 0
-0.00333258 -0.0036546 0
-0.0027201 -0.00326603 0
-0.00217344 -0.00287498 0
-0.00169156 -0.00247992 0
-0.00127863 -0.00208119 0
-0.000927074 -0.00167804 0
-0.000639095 -0.00127184 0
-0.00040888 -0.000860158 0
-0.000214182 -0.000431411 0
0 0 0
0 0 0
0 0 0
0 0 0
0 0 0
0 0 0
0 0 0
0 0 0
0 0 0
-0.000131585 0.000296247 0
-0.000287681 0.000606936 0
-0.000489958 0.000903914 0
-0.000761766 0.00119692 0
-0.00110295 0.00148655 0
-0.00151358 0.0017711 0
-0.00199191 0.00204998 0
-0.00253972 0.00232382 0
-0.00315411 0.0025963 0
-0.00383107 0.00285351 0
-0.00457181 0.00311513 0
-0.00537403 0.0033679 0
-0.00624114 0.00361443 0
-0.00716855 0.00385549 0
-0.00815483 0.00409134 0
-0.00919961 0.00432228 0
-0.0103023 0.00454774 0
-0.0114615 0.00476791 0
-0.0126765 0.00498268 0
-0.0139457 0.00519206 0
-0.0152682 0.00539597 0
-0.0166426 0.00559489 0
-0.0180685 0.00578854 0
-0.0195444 0.00597709 0
-0.0210695 0.0061598 0
-0.0226422 0.00633634 0
-0.024262 0.00650667 0
-0.0259293 0.00667284 0
-0.0276396 0.00683854 0
-0.0293917 0.00699457 0
-0.0311873 0.00714495 0
-0.0330247 0.00729085 0
-0.034903 0.00743119 0
-0.036821 0.00756588 0
-0.0387774 0.00769524 0
-0.0407711 0.00781909 0
-0.0428009 0.00793769 0
-0.0448659 0.00805092 0
-0.0469649 0.00815901 0
-0.0490971 0.00826185 0
-0.0512613 0.00835943 0
-0.0534564 0.00845154 0
-0.0556804 0.0085378 0
-0.0579336 0.00861897 0
-0.0602154 0.00869645 0
-0.0625219 0.00876506 0
-0.0648543 0.00883288 0
-0.0672099 0.00889447 0
-0.06959 0.00895132 0
-0.0719927 0.00900442 0
-0.0744176 0.00905458 0
-0.0768653 0.00910291 0
-0.0793374 0.00915048 0
-0.0818372 0.00919875 0
-0.0869017 0.00954281 0
-0.089415 0.0103171 0
-0.0918495 0.0115331 0
-0.0941889 0.013101 0
-0.0963088 0.0149206 0
-0.0982143 0.0168283 0
-0.0997859 0.0186423 0
-0.102027 0.0216597 0
-0.102913 0.0228868 0
-0.103751 0.0239195 0
-0.104538 0.0247825 0
-0.105324 0.0254812 0
-0.106036 0.026025 0
-0.106737 0.0264109 0
-0.107372 0.0266646 0
-0.107987 0.0267742 0
-0.108576 0.0267617 0
-0.109116 0.0266335 0
-0.109613 0.0263905 0
-0.110089 0.0260407 0
-0.110521 0.025594 0
-0.110924 0.0250509 0
-0.11129 0.0244267 0
-0.111618 0.0237254 0
-0.111912 0.0229514 0
-0.112169 0.022118 0
-0.112386 0.0212269 0
-0.11258 0.0202867 0
-0.112732 0.0193032 0
-0.112852 0.0182799 0
-0.112936 0.0172346 0
-0.112982 0.0161676 0
-0.112991 0.0150841 0
-0.112971 0.013993 0
-0.112914 0.0129083 0
-0.11282 0.011822 0
-0.112692 0.0107562 0
-0.112527 0.00970649 0
-0.112329 0.00868469 0
-0.112102 0.00770398 0
-0.111834 0.00675323 0
-0.111541 0.0058565 0
-0.111205 0.00500006 0
-0.110844 0.00420601 0
-0.110431 0.00345347 0
-0.109983 0.00276074 0
-0.108804 0.00152094 0
-0.10817 0.000999024 0
-0.107475 0.000564529 0
-0.106743 0.000135934 0
-0.105877 -0.000295567 0
-0.104923 -0.000810451 0
-0.103843 -0.0013704 0
-0.101266 -0.00275807 0
-0.0998532 -0.00337308 0
-0.0983641 -0.00394145 0
-0.0967935 -0.00447817 0
-0.0951404 -0.00498902 0
-0.0934055 -0.00547546 0
-0.0915918 -0.00593816 0
-0.0896997 -0.00637854 0
-0.0877321 -0.00680065 0
-0.0857012 -0.00719146 0
-0.0835995 -0.00756706 0
-0.0814432 -0.00791478 0
-0.0792292 -0.00823812 0
-0.0769646 -0.00853783 0
-0.0746543 -0.00881366 0
-0.072303 -0.00906566 0
-0.0699154 -0.00929341 0
-0.0674966 -0.00949688 0
-0.0650514 -0.00967616 0
-0.0625846 -0.00983121 0
-0.0601012 -0.00996195 0
-0.0576062 -0.0100685 0
-0.0551041 -0.010151 0
-0.0525996 -0.0102092 0
-0.050098 -0.010243 0
-0.0476048 -0.0102526 0
-0.0451249 -0.0102385 0
-0.0426587 -0.0101992 0
-0.040217 -0.010137 0
-0.0378001 -0.0100499 0
-0.0354163 -0.00993931 0
-0.0330684 -0.00980368 0
-0.0307623 -0.00964398 0
-0.0285028 -0.00946049 0
-0.0262942 -0.00925277 0
-0.0241414 -0.00902105 0
-0.0220491 -0.00876484 0
-0.020023 -0.00848466 0
-0.0180672 -0.00817994 0
-0.0161873 -0.00785093 0
-0.0143877 -0.00749749 0
-0.012673 -0.00712025 0
-0.0110456 -0.00671981 0
-0.00951809 -0.00629368 0
-0.00808536 -0.00583835 0
-0.00676015 -0.00537444 0
-0.0055369 -0.00486933 0
-0.00443121 -0.00434761 0
-0.00344664 -0.00380305 0
-0.00258332 -0.00323337 0
-0.00184727 -0.00263952 0
-0.00123841 -0.00202185 0
-0.000752726 -0.00137873 0
-0.000366456 -0.000691114 0
0 0 0
0 0 0
0 0 0
0 0 0
0 0 0
0 0 0
0 0 0
0 0 0
0 0 0
-0.000434122 0.000824988 0
-0.000882117 0.00164381 0
-0.00138698 0.00239638 0
-0.00201167 0.00311951 0
-0.00276255 0.00382393 0
-0.00362585 0.00450875 0
-0.00461558 0.00517165 0
-0.0057185 0.0058108 0
-0.00693767 0.00643096 0
-0.00826149 0.00701286 0
-0.00969686 0.00758567 0
-0.0112266 0.00813163 0
-0.0128501 0.00865149 0
-0.0145674 0.00914786 0
-0.0163659 0.00961885 0
-0.0182479 0.0100671 0
-0.0202014 0.0104917 0
-0.022229 0.0108929 0
-0.0243191 0.0112689 0
-0.0264732 0.0116208 0
-0.0286813 0.0119467 0
-0.0309425 0.0122494 0
-0.0332477 0.0125273 0
-0.0355958 0.0127821 0
-0.037979 0.0130118 0
-0.0403948 0.0132182 0
-0.0428366 0.0133994 0
-0.0453026 0.0135578 0
-0.0477836 0.0136918 0
-0.0502769 0.0138006 0
-0.0527786 0.0138862 0
-0.0552828 0.0139466 0
-0.0577849 0.0139839 0
-0.0602802 0.0139961 0
-0.0627631 0.0139849 0
-0.0652302 0.0139486 0
-0.0676752 0.0138889 0
-0.0700949 0.0138041 0
-0.072482 0.013696 0
-0.0748343 0.013563 0
-0.0771439 0.0134068 0
-0.0794102 0.0132253 0
-0.0816238 0.0130202 0
-0.0837819 0.012789 0
-0.0858846 0.0125316 0
-0.0879151 0.0122589 0
-0.0898801 0.011952 0
-0.0917658 0.0116226 0
-0.0935727 0.0112674 0
-0.0952887 0.0108885 0
-0.0969142 0.0104841 0
-0.0984344 0.0100566 0
-0.099852 0.00960752 0
-0.10115 0.00914139 0
-0.102331 0.00865973 0
-0.103384 0.00817312 0
-0.104314 0.00769261 0
-0.105115 0.00722337 0
-0.105802 0.00677718 0
-0.106374 0.00636275 0
-0.10685 0.00599126 0
-0.107241 0.00566715 0
-0.107567 0.00539928 0
-0.10784 0.00518766 0
-0.108336 0.00491338 0
-0.108573 0.00476546 0
-0.108795 0.00457211 0
-0.108993 0.00433085 0
-0.109149 0.00405138 0
-0.109245 0.00373386 0
-0.109275 0.0033814 0
-0.109067 0.00263637 0
-0.108859 0.00228523 0
-0.108597 0.00198588 0
-0.108287 0.00175366 0
-0.107548 0.00155092 0
-0.107141 0.00160261 0
-0.106723 0.00176524 0
-0.106305 0.00203921 0
-0.105897 0.00242311 0
-0.105507 0.00291297 0
-0.105143 0.00349978 0
-0.10481 0.00417582 0
-0.104511 0.00493084 0
-0.104247 0.00575593 0
-0.104018 0.00664171 0
-0.103826 0.00757993 0
-0.103671 0.00856161 0
-0.103551 0.00957943 0
-0.103466 0.0106283 0
-0.103419 0.0116971 0
-0.103407 0.0127804 0
-0.103431 0.0138703 0
-0.103489 0.0149601 0
-0.103583 0.0160431 0
-0.103712 0.0171114 0
-0.103877 0.0181593 0
-0.104076 0.0191781 0
-0.104312 0.0201623 0
-0.104581 0.0211026 0
-0.104887 0.0219952 0
-0.105227 0.0228291 0
-0.105604 0.0236019 0
-0.106014 0.024302 0
-0.106461 0.0249273 0
-0.106942 0.0254655 0
-0.107461 0.0259157 0
-0.108012 0.0262636 0
-0.108598 0.026506 0
-0.109219 0.0266358 0
-0.109874 0.0266468 0
-0.110563 0.0265317 0
-0.111286 0.0262822 0
-0.112042 0.0258947 0
-0.112831 0.0253636 0
-0.113651 0.0246857 0
-0.114504 0.0238602 0
-0.115396 0.0228882 0
-0.116351 0.0217796 0
-0.11877 0.0192389 0
-0.120483 0.017844 0
-0.122689 0.0165058 0
-0.125308 0.0154045 0
-0.12834 0.0145954 0
-0.13186 0.0143366 0
-0.135783 0.0146648 0
-0.144527 0.0166833 0
-0.149177 0.017713 0
-0.153982 0.0186778 0
-0.158947 0.0196006 0
-0.164079 0.0204901 0
-0.169373 0.0213467 0
-0.174834 0.0221728 0
-0.180464 0.0229757 0
-0.186245 0.0237693 0
-0.19217 0.0245187 0
-0.198246 0.0252393 0
-0.204464 0.0259339 0
-0.21082 0.0265982 0
-0.217307 0.0272325 0
-0.223917 0.027837 0
-0.230647 0.028412 0
-0.237488 0.0289572 0
-0.244435 0.0294733 0
-0.251483 0.0299603 0
-0.258625 0.0304181 0
-0.265857 0.0308466 0
-0.273171 0.0312452 0
-0.28056 0.0316127 0
-0.28802 0.0319509 0
-0.295551 0.0322636 0
-0.303133 0.0325386 0
-0.310774 0.032793 0
-0.318456 0.0330149 0
-0.326183 0.0332058 0
-0.333945 0.0333657 0
-0.341735 0.0334938 0
-0.349546 0.0335883 0
-0.357364 0.0336484 0
-0.365177 0.0336756 0
-0.372981 0.0259104 0
-0.372994 0.0181707 0
-0.373032 0.0104522 0
-0.373118 0.00274372 0
-0.380555 0.032922 0
-0.38782 0.0307054 0
-0.394501 0.027118 0
-0.400344 0.0223063 0
-0.405133 0.0164554 0
-0.408686 0.00979082 0
-0.410874 0.00256554 0
-0.397459 -0.0260353 0
-0.389497 -0.0335571 0
-0.381952 -0.0329941 0
-0.40107 -0.0134959 0
-0.391715 -0.0121634 0
-0.380514 -0.0239174 0
-0.401387 -0.0210061 0
-0.394204 -0.0310292 0
-0.383335 -0.0117391 0
-0.389249 -0.0264902 0
-0.394565 -0.0196031 0
-0.379301 -0.0174051 0
-0.386449 -0.0185459 0
-0.358114 -0.0287306 0
-0.357811 -0.0129632 0
-0.356415 0.00319508 0
-0.358578 0.0187581 0
-0.340121 -0.0294067 0
-0.339853 -0.0121949 0
-0.339773 0.00342598 0
-0.34085 0.0196062 0
-0.325353 -0.0286853 0
-0.324832 -0.0116696 0
-0.323818 0.0050994 0
-0.324918 0.0194885 0
-0.308569 -0.0282601 0
-0.308299 -0.0121587 0
-0.308715 0.00518644 0
-0.307796 0.0196447 0
-0.289836 -0.0277931 0
-0.289668 -0.011932 0
-0.292205 0.00281261 0
-0.29066 0.018801 0
-0.273606 -0.0271598 0
-0.274667 -0.0113057 0
-0.274913 0.00560129 0
-0.273793 0.0186072 0
-0.258545 -0.0265703 0
-0.257965 -0.00946783 0
-0.260426 0.00430337 0
-0.259205 0.0179008 0
-0.244215 -0.0265918 0
-0.243439 -0.0112138 0
-0.244937 0.00433321 0
-0.244547 0.0170843 0
-0.230389 -0.0261391 0
-0.230986 -0.0112471 0
-0.229703 0.00393417 0
-0.230219 0.0163589 0
-0.216956 -0.0248758 0
-0.21754 -0.00958371 0
-0.214845 0.00289963 0
-0.216338 0.0156981 0
-0.203709 -0.0235576 0
-0.203529 -0.00903431 0
-0.201579 0.00351604 0
-0.203102 0.0151988 0
-0.190853 -0.0229159 0
-0.189535 -0.0101237 0
-0.189246 0.00183833 0
-0.189753 0.0138834 0
-0.177253 -0.0220709 0
-0.177072 -0.00987931 0
-0.177604 0.000857078 0
-0.177011 0.0119764 0
-0.16455 -0.0205353 0
-0.165255 -0.00935608 0
-0.164611 0.0020894 0
-0.164473 0.0113238 0
-0.154046 -0.0191761 0
-0.153709 -0.00815095 0
-0.154872 0.00140468 0
-0.154287 0.0103718 0
-0.14465 -0.0181881 0
-0.144452 -0.00884594 0
-0.145187 0.00066591 0
-0.144544 0.00895524 0
-0.135633 -0.0162657 0
-0.13571 -0.0076239 0
-0.136683 0.000174142 0
-0.135514 0.00704406 0
-0.128545 -0.0160042 0
-0.127985 -0.00791645 0
-0.127664 -0.000217021 0
-0.127258 0.00673414 0
-0.122193 -0.0146219 0
-0.121752 -0.00730956 0
-0.120578 5.17132e-05 0
-0.121571 0.00628688 0
-0.12072 0.0122171 0
-0.119562 0.0164659 0
-0.116286 -0.0136232 0
-0.115706 -0.00689241 0
-0.115534 0.00029436 0
-0.115301 0.00637098 0
-0.114942 0.0116814 0
-0.114328 0.0162351 0
-0.11452 0.01989 0
-0.112996 0.0226704 0
-0.111749 0.0247555 0
-0.110888 0.0261136 0
-0.11006 0.0268588 0
-0.109312 0.0270105 0
-0.108609 0.026663 0
-0.107874 0.0257451 0
-0.107368 0.0245739 0
-0.106927 0.0231072 0
-0.10668 0.0212991 0
-0.106375 0.019269 0
-0.105982 0.0170862 0
-0.105794 0.0149133 0
-0.105699 0.0126753 0
-0.105639 0.0104837 0
-0.10586 0.00810529 0
-0.106056 0.00610919 0
-0.10629 0.00438244 0
-0.106566 0.00297721 0
-0.106974 0.00198183 0
-0.107387 0.00140364 0
-0.107792 0.00135646 0
-0.108161 0.00173075 0
-0.10849 0.00246696 0
-0.10872 0.0033133 0
-0.108749 0.00420684 0
-0.110601 -0.0128069 0
-0.110579 -0.00645891 0
-0.110551 -0.000215521 0
-0.11011 0.00590376 0
-0.110143 0.0112567 0
-0.110123 0.0158077 0
-0.110121 0.0197986 0
-0.110062 0.0228855 0
-0.109847 0.0249041 0
-0.109612 0.0262959 0
-0.109346 0.0270035 0
-0.109035 0.0271662 0
-0.108784 0.0268048 0
-0.108562 0.0259535 0
-0.108384 0.0247078 0
-0.108185 0.02306 0
-0.108097 0.0213105 0
-0.108017 0.0192733 0
-0.107843 0.0170482 0
-0.107743 0.0148724 0
-0.107647 0.0125939 0
-0.107549 0.010326 0
-0.107499 0.00816729 0
-0.107604 0.00611698 0
-0.107484 0.00431042 0
-0.10752 0.00288281 0
-0.107542 0.00188317 0
-0.107695 0.00123067 0
-0.10788 0.00119041 0
-0.108048 0.00160625 0
-0.1082 0.00237918 0
-0.108292 0.00327588 0
-0.108315 0.00433623 0
-0.104557 -0.0121178 0
-0.104429 -0.00613746 0
-0.104581 -0.000355432 0
-0.104935 0.00489625 0
-0.105529 0.0112531 0
-0.106136 0.0154889 0
-0.10647 0.0196905 0
-0.10738 0.0225571 0
-0.107645 0.0249679 0
-0.107963 0.0263066 0
-0.108322 0.0269976 0
-0.108646 0.0271662 0
-0.108931 0.0268096 0
-0.109186 0.0259724 0
-0.109389 0.0247358 0
-0.109559 0.023187 0
-0.109814 0.0213385 0
-0.109588 0.0192425 0
-0.109714 0.0170824 0
-0.109709 0.0148625 0
-0.109593 0.0125436 0
-0.109422 0.0102972 0
-0.109229 0.00819844 0
-0.108882 0.0061637 0
-0.108724 0.00435286 0
-0.108449 0.00289666 0
-0.108125 0.00166916 0
-0.107977 0.000986076 0
-0.107916 0.000967221 0
-0.107896 0.00149536 0
-0.107914 0.00241683 0
-0.107892 0.00342794 0
-0.107808 0.00457006 0
-0.0993816 -0.0116575 0
-0.0998196 -0.00601747 0
-0.100002 -0.000361727 0
-0.10073 0.00535227 0
-0.1007 0.0110964 0
-0.101501 0.0152606 0
-0.102968 0.0191714 0
-0.103787 0.0224028 0
-0.105283 0.0247125 0
-0.106347 0.0260151 0
-0.107409 0.0267611 0
-0.108368 0.0269847 0
-0.109255 0.0265936 0
-0.109966 0.0257732 0
-0.110381 0.0246198 0
-0.110789 0.0231483 0
-0.111231 0.0213121 0
-0.111619 0.0192468 0
-0.111498 0.0171286 0
-0.111783 0.0149314 0
-0.111517 0.0123847 0
-0.111259 0.0102819 0
-0.111224 0.00820613 0
-0.110785 0.00624699 0
-0.11023 0.00449464 0
-0.109511 0.00292521 0
-0.108641 0.00156768 0
-0.108053 0.000782449 0
-0.107678 0.000645113 0
-0.107522 0.00131341 0
-0.107424 0.00234755 0
-0.107276 0.00357697 0
-0.107073 0.00495744 0
-0.0944054 -0.011225 0
-0.0949586 -0.00561376 0
-0.0952821 -8.15141e-05 0
-0.0955318 0.00533105 0
-0.0958208 0.010609 0
-0.106943 0.000265625 0
-0.10683 0.00102982 0
-0.106514 0.00216712 0
-0.10619 0.00380188 0
-0.106018 0.00544704 0
-0.0893306 -0.011129 0
-0.0888714 -0.00567396 0
-0.0894165 -0.000237284 0
-0.0899493 0.00471006 0
-0.0843771 -0.0110671 0
-0.0841795 -0.00539065 0
-0.0843854 -1.11721e-06 0
-0.0844128 0.00482197 0
-0.0794162 -0.0107355 0
-0.079169 -0.005213 0
-0.0793046 0.000343975 0
-0.0792058 0.00478985 0
-0.0743824 -0.0103726 0
-0.0740048 -0.00530747 0
-0.0738563 3.95765e-05 0
-0.0741174 0.0047801 0
-0.0694316 -0.0102083 0
-0.0689748 -0.00508307 0
-0.0690284 0.000252079 0
-0.0692091 0.00471663 0
-0.0643031 -0.00995757 0
-0.0641715 -0.0050053 0
-0.0642801 0.000344486 0
-0.063953 0.00480515 0
-0.0586095 -0.00960493 0
-0.0585099 -0.00476403 0
-0.0592424 -0.000275308 0
-0.0587445 0.00461522 0
-0.0537157 -0.00923337 0
-0.0539865 -0.00443974 0
-0.0540188 0.000690989 0
-0.0536595 0.00463802 0
-0.0492044 -0.0088945 0
-0.0489805 -0.00373712 0
-0.0496813 0.00039954 0
-0.0492896 0.00450485 0
-0.0449367 -0.00875132 0
-0.0446603 -0.00413358 0
-0.0450656 0.00052409 0
-0.0449216 0.00435106 0
-0.0408347 -0.00847518 0
-0.0409673 -0.00403086 0
-0.0405468 0.000526154 0
-0.0406693 0.00423576 0
-0.0368589 -0.00796584 0
-0.0369864 -0.00341032 0
-0.036155 0.000344172 0
-0.0365626 0.00414907 0
-0.0329454 -0.00744629 0
-0.0328491 -0.00311537 0
-0.0322356 0.000651277 0
-0.0326522 0.00411891 0
-0.0291513 -0.00713524 0
-0.0287182 -0.00330431 0
-0.0285729 0.000285451 0
-0.0287091 0.00387529 0
-0.02513 -0.00676139 0
-0.0250186 -0.00312529 0
-0.0248842 0.000202446 0
-0.0249939 0.00353052 0
-0.0213541 -0.00619206 0
-0.0215384 -0.00285771 0
-0.0214264 0.000523592 0
-0.0212834 0.00341556 0
-0.0182001 -0.00569578 0
-0.0180738 -0.0023424 0
-0.0184127 0.0005458 0
-0.0182035 0.00328413 0
-0.0153329 -0.00532059 0
-0.0152619 -0.00246338 0
-0.0154939 0.000460548 0
-0.0153322 0.00304354 0
-0.012514 -0.00465217 0
-0.0125492 -0.00201901 0
-0.0128703 0.000386972 0
-0.0126483 0.00279925 0
-0.0102292 -0.00447842 0
-0.0101023 -0.00204545 0
-0.0101729 0.000497435 0
-0.0101763 0.00256085 0
-0.00812098 -0.00392255 0
-0.00791153 -0.00172503 0
-0.00778928 0.000391475 0
-0.00796075 0.0023085 0
-0.00616349 -0.00342696 0
-0.00586096 -0.00148577 0
-0.00608123 0.000498517 0
-0.00603693 0.00202728 0
-0.00436014 -0.00289635 0
-0.00420463 -0.00133582 0
-0.0042212 0.000295521 0
-0.00418817 0.00174436 0
-0.00268424 -0.00225441 0
-0.00255488 -0.00102333 0
-0.00263156 0.000155396 0
-0.00267527 0.00140002 0
-0.0015325 -0.00166143 0
-0.00150867 -0.000712595 0
-0.00148642 0.000201277 0
-0.00146737 0.00101992 0
-0.000795016 -0.00116633 0
-0.000674511 -0.00052542 0
-0.000707121 7.57651e-05 0
-0.000672807 0.0006736 0
-0.00018806 -0.000474591 0
-0.000116673 -0.000230315 0
-9.85352e-05 2.67015e-05 0
-0.000142492 0.000294856 0
-0.105209 0.000615164 0
-0.10504 0.0021181 0
-0.104816 0.00382495 0
-0.104479 0.00601116 0
-0.100013 -0.000944534 0
-0.100059 0.00144383 0
-0.0999845 0.00391597 0
-0.100102 0.00703569 0
-0.102519 0.00675061 0
-0.102685 0.00421555 0
-0.102825 0.00187886 0
-0.102863 -0.00011778 0
-0.09683 -0.00176171 0
-0.0967701 0.00111514 0
-0.0970368 0.00422947 0
-0.0970301 0.00751061 0
-0.0933346 -0.00243936 0
-0.0933598 0.000823589 0
-0.0928455 0.00453343 0
-0.0935125 0.00797109 0
-0.0889984 -0.00330867 0
-0.0892014 0.00078334 0
-0.0895346 0.00451264 0
-0.0894807 0.00843573 0
-0.084676 -0.00390359 0
-0.0846844 0.000478053 0
-0.0843863 0.00451731 0
-0.0844487 0.00880239 0
-0.0796816 -0.00429013 0
-0.0799334 -0.000186559 0
-0.0800319 0.00448548 0
-0.0796882 0.00901658 0
-0.075 -0.00475799 0
-0.075319 -0.000358333 0
-0.0752539 0.00446207 0
-0.0749624 0.00908915 0
-0.0700873 -0.00511945 0
-0.0700751 -0.000957015 0
-0.0703384 0.00401521 0