# vtk DataFile Version 4.0
output of FEM program
ASCII

DATASET UNSTRUCTURED_GRID
POINTS 6802 float
15 32.5 0
15 30.5287 0
15 0 0
30 0 0
30 35 0
19.4713 35 0
17.5 35 0
30 65 0
15 65 0
15 39.4713 0
15 37.5 0
12.5 35 0
10.5287 35 0
0 35 0
0 0 0
0 65 0
15 32.4014 0
15 32.3029 0
15 32.2043 0
15 32.1057 0
15 32.0072 0
15 31.9086 0
15 31.81 0
15 31.7115 0
15 31.6129 0
15 31.5143 0
15 31.4158 0
15 31.3172 0
15 31.2186 0
15 31.1201 0
15 31.0215 0
15 30.9229 0
15 30.8244 0
15 30.7258 0
15 30.6272 0
15 30.4157 0
15 30.2274 0
15 29.7253 0
15 28.9219 0
15 28.1185 0
15 27.3151 0
15 26.5117 0
15 25.7083 0
15 24.905 0
15 24.1016 0
15 23.2982 0
15 22.4948 0
15 21.6914 0
15 20.888 0
15 20.0846 0
15 19.2813 0
15 18.4779 0
15 17.6745 0
15 16.8711 0
15 16.0677 0
15 15.2643 0
15 14.4609 0
15 13.6576 0
15 12.8542 0
15 12.0508 0
15 11.2474 0
15 10.444 0
15 9.64063 0
15 8.83724 0
15 8.03386 0
15 7.23047 0
15 6.42709 0
15 5.6237 0
15 4.82032 0
15 4.01693 0
15 3.21354 0
15 2.41016 0
15 1.60677 0
15 0.803386 0
15.7895 0 0
16.5789 0 0
17.3684 0 0
18.1579 0 0
18.9474 0 0
19.7368 0 0
20.5263 0 0
21.3158 0 0
22.1053 0 0
22.8947 0 0
23.6842 0 0
24.4737 0 0
25.2632 0 0
26.0526 0 0
26.8421 0 0
27.6316 0 0
28.4211 0 0
29.2105 0 0
30 0.795455 0
30 1.59091 0
30 2.38636 0
30 3.18182 0
30 3.97727 0
30 4.77273 0
30 5.56818 0
30 6.36364 0
30 7.15909 0
30 7.95455 0
30 8.75 0
30 9.54545 0
30 10.3409 0
30 11.1364 0
30 11.9318 0
30 12.7273 0
30 13.5227 0
30 14.3182 0
30 15.1136 0
30 15.9091 0
30 16.7045 0
30 17.5 0
30 18.2955 0
30 19.0909 0
30 19.8864 0
30 20.6818 0
30 21.4773 0
30 22.2727 0
30 23.0682 0
30 23.8636 0
30 24.6591 0
30 25.4545 0
30 26.25 0
30 27.0455 0
30 27.8409 0
30 28.6364 0
30 29.4318 0
30 30.2273 0
30 31.0227 0
30 31.8182 0
30 32.6136 0
30 33.4091 0
30 34.2045 0
29.1901 35 0
28.3802 35 0
27.5703 35 0
26.7604 35 0
25.9505 35 0
25.1406 35 0
24.3307 35 0
23.5208 35 0
22.7109 35 0
21.901 35 0
21.0911 35 0
20.2812 35 0
19.775 35 0
19.5852 35 0
19.3728 35 0
19.2742 35 0
19.1756 35 0
19.0771 35 0
18.9785 35 0
18.8799 35 0
18.7814 35 0
18.6828 35 0
18.5842 35 0
18.4857 35 0
18.3871 35 0
18.2885 35 0
18.19 35 0
18.0914 35 0
17.9928 35 0
17.8943 35 0
17.7957 35 0
17.6971 35 0
17.5986 35 0
17.498 34.8993 0
17.4919 34.7988 0
17.4818 34.6987 0
17.4676 34.599 0
17.4495 34.4999 0
17.4274 34.4017 0
17.4013 34.3045 0
17.3713 34.2083 0
17.3375 34.1135 0
17.2999 34.0201 0
17.2586 33.9283 0
17.2136 33.8382 0
17.1651 33.75 0
17.113 33.6638 0
17.0575 33.5798 0
16.9986 33.4981 0
16.9365 33.4189 0
16.8713 33.3422 0
16.803 33.2682 0
16.7318 33.197 0
16.6578 33.1287 0
16.5811 33.0635 0
16.5019 33.0014 0
16.4202 32.9425 0
16.3362 32.887 0
16.25 32.8349 0
16.1618 32.7864 0
16.0717 32.7414 0
15.9799 32.7001 0
15.8865 32.6625 0
15.7917 32.6287 0
15.6955 32.5987 0
15.5983 32.5726 0
15.5001 32.5505 0
15.401 32.5324 0
15.3013 32.5182 0
15.2012 32.5081 0
15.1007 32.502 0
30 35.7895 0
30 36.5789 0
30 37.3684 0
30 38.1579 0
30 38.9474 0
30 39.7368 0
30 40.5263 0
30 41.3158 0
30 42.1053 0
30 42.8947 0
30 43.6842 0
30 44.4737 0
30 45.2632 0
30 46.0526 0
30 46.8421 0
30 47.6316 0
30 48.4211 0
30 49.2105 0
30 50 0
30 50.7895 0
30 51.5789 0
30 52.3684 0
30 53.1579 0
30 53.9474 0
30 54.7368 0
30 55.5263 0
30 56.3158 0
30 57.1053 0
30 57.8947 0
30 58.6842 0
30 59.4737 0
30 60.2632 0
30 61.0526 0
30 61.8421 0
30 62.6316 0
30 63.4211 0
30 64.2105 0
29.2105 65 0
28.4211 65 0
27.6316 65 0
26.8421 65 0
26.0526 65 0
25.2632 65 0
24.4737 65 0
23.6842 65 0
22.8947 65 0
22.1053 65 0
21.3158 65 0
20.5263 65 0
19.7368 65 0
18.9474 65 0
18.1579 65 0
17.3684 65 0
16.5789 65 0
15.7895 65 0
15 64.2022 0
15 63.4045 0
15 62.6067 0
15 61.8089 0
15 61.0111 0
15 60.2134 0
15 59.4156 0
15 58.6178 0
15 57.8201 0
15 57.0223 0
15 56.2245 0
15 55.4268 0
15 54.629 0
15 53.8312 0
15 53.0334 0
15 52.2357 0
15 51.4379 0
15 50.6401 0
15 49.8424 0
15 49.0446 0
15 48.2468 0
15 47.449 0
15 46.6513 0
15 45.8535 0
15 45.0557 0
15 44.258 0
15 43.4602 0
15 42.6624 0
15 41.8646 0
15 41.0669 0
15 40.2691 0
15 39.7705 0
15 39.5835 0
15 39.3728 0
15 39.2742 0
15 39.1756 0
15 39.0771 0
15 38.9785 0
15 38.8799 0
15 38.7814 0
15 38.6828 0
15 38.5842 0
15 38.4857 0
15 38.3871 0
15 38.2885 0
15 38.19 0
15 38.0914 0
15 37.9928 0
15 37.8943 0
15 37.7957 0
15 37.6971 0
15 37.5986 0
15.1007 37.498 0
15.2012 37.4919 0
15.3013 37.4818 0
15.401 37.4676 0
15.5001 37.4495 0
15.5983 37.4274 0
15.6955 37.4013 0
15.7917 37.3713 0
15.8865 37.3375 0
15.9799 37.2999 0
16.0717 37.2586 0
16.1618 37.2136 0
16.25 37.1651 0
16.3362 37.113 0
16.4202 37.0575 0
16.5019 36.9986 0
16.5811 36.9365 0
16.6578 36.8713 0
16.7318 36.803 0
16.803 36.7318 0
16.8713 36.6578 0
16.9365 36.5811 0
16.9986 36.5019 0
17.0575 36.4202 0
17.113 36.3362 0
17.1651 36.25 0
17.2136 36.1618 0
17.2586 36.0717 0
17.2999 35.9799 0
17.3375 35.8865 0
17.3713 35.7917 0
17.4013 35.6955 0
17.4274 35.5983 0
17.4495 35.5001 0
17.4676 35.401 0
17.4818 35.3013 0
17.4919 35.2012 0
17.498 35.1007 0
12.4014 35 0
12.3029 35 0
12.2043 35 0
12.1057 35 0
12.0072 35 0
11.9086 35 0
11.81 35 0
11.7115 35 0
11.6129 35 0
11.5143 35 0
11.4158 35 0
11.3172 35 0
11.2186 35 0
11.1201 35 0
11.0215 35 0
10.9229 35 0
10.8244 35 0
10.7258 35 0
10.6272 35 0
10.4148 35 0
10.225 35 0
9.71877 35 0
8.90887 35 0
8.09897 35 0
7.28907 35 0
6.47918 35 0
5.66928 35 0
4.85938 35 0
4.04949 35 0
3.23959 35 0
2.42969 35 0
1.61979 35 0
0.809897 35 0
0 34.2045 0
0 33.4091 0
0 32.6136 0
0 31.8182 0
0 31.0227 0
0 30.2273 0
0 29.4318 0
0 28.6364 0
0 27.8409 0
0 27.0455 0
0 26.25 0
0 25.4545 0
0 24.6591 0
0 23.8636 0
0 23.0682 0
0 22.2727 0
0 21.4773 0
0 20.6818 0
0 19.8864 0
0 19.0909 0
0 18.2955 0
0 17.5 0
0 16.7045 0
0 15.9091 0
0 15.1136 0
0 14.3182 0
0 13.5227 0
0 12.7273 0
0 11.9318 0
0 11.1364 0
0 10.3409 0
0 9.54545 0
0 8.75 0
0 7.95455 0
0 7.15909 0
0 6.36364 0
0 5.56818 0
0 4.77273 0
0 3.97727 0
0 3.18182 0
0 2.38636 0
0 1.59091 0
0 0.795455 0
0.789474 0 0
1.57895 0 0
2.36842 0 0
3.15789 0 0
3.94737 0 0
4.73684 0 0
5.52632 0 0
6.31579 0 0
7.10526 0 0
7.89474 0 0
8.68421 0 0
9.47368 0 0
10.2632 0 0
11.0526 0 0
11.8421 0 0
12.6316 0 0
13.4211 0 0
14.2105 0 0
14.8993 32.502 0
14.7988 32.5081 0
14.6987 32.5182 0
14.599 32.5324 0
14.4999 32.5505 0
14.4017 32.5726 0
14.3045 32.5987 0
14.2083 32.6287 0
14.1135 32.6625 0
14.0201 32.7001 0
13.9283 32.7414 0
13.8382 32.7864 0
13.75 32.8349 0
13.6638 32.887 0
13.5798 32.9425 0
13.4981 33.0014 0
13.4189 33.0635 0
13.3422 33.1287 0
13.2682 33.197 0
13.197 33.2682 0
13.1287 33.3422 0
13.0635 33.4189 0
13.0014 33.4981 0
12.9425 33.5798 0
12.887 33.6638 0
12.8349 33.75 0
12.7864 33.8382 0
12.7414 33.9283 0
12.7001 34.0201 0
12.6625 34.1135 0
12.6287 34.2083 0
12.5987 34.3045 0
12.5726 34.4017 0
12.5505 34.4999 0
12.5324 34.599 0
12.5182 34.6987 0
12.5081 34.7988 0
12.502 34.8993 0
14.2105 65 0
13.4211 65 0
12.6316 65 0
11.8421 65 0
11.0526 65 0
10.2632 65 0
9.47368 65 0
8.68421 65 0
7.89474 65 0
7.10526 65 0
6.31579 65 0
5.52632 65 0
4.73684 65 0
3.94737 65 0
3.15789 65 0
2.36842 65 0
1.57895 65 0
0.789474 65 0
0 64.2105 0
0 63.4211 0
0 62.6316 0
0 61.8421 0
0 61.0526 0
0 60.2632 0
0 59.4737 0
0 58.6842 0
0 57.8947 0
0 57.1053 0
0 56.3158 0
0 55.5263 0
0 54.7368 0
0 53.9474 0
0 53.1579 0
0 52.3684 0
0 51.5789 0
0 50.7895 0
0 50 0
0 49.2105 0
0 48.4211 0
0 47.6316 0
0 46.8421 0
0 46.0526 0
0 45.2632 0
0 44.4737 0
0 43.6842 0
0 42.8947 0
0 42.1053 0
0 41.3158 0
0 40.5263 0
0 39.7368 0
0 38.9474 0
0 38.1579 0
0 37.3684 0
0 36.5789 0
0 35.7895 0
12.502 35.1007 0
12.5081 35.2012 0
12.5182 35.3013 0
12.5324 35.401 0
12.5505 35.5001 0
12.5726 35.5983 0
12.5987 35.6955 0
12.6287 35.7917 0
12.6625 35.8865 0
12.7001 35.9799 0
12.7414 36.0717 0
12.7864 36.1618 0
12.8349 36.25 0
12.887 36.3362 0
12.9425 36.4202 0
13.0014 36.5019 0
13.0635 36.5811 0
13.1287 36.6578 0
13.197 36.7318 0
13.2682 36.803 0
13.3422 36.8713 0
13.4189 36.9365 0
13.4981 36.9986 0
13.5798 37.0575 0
13.6638 37.113 0
13.75 37.1651 0
13.8382 37.2136 0
13.9283 37.2586 0
14.0201 37.2999 0
14.1135 37.3375 0
14.2083 37.3713 0
14.3045 37.4013 0
14.4017 37.4274 0
14.4999 37.4495 0
14.599 37.4676 0
14.6987 37.4818 0
14.7988 37.4919 0
14.8993 37.498 0
16.0785 30.4786 0
17.1415 31.604 0
18.1677 31.5449 0
19.2601 31.5898 0
20.3548 31.6292 0
21.4706 31.5786 0
22.5501 31.7501 0
23.6272 31.6202 0
24.8641 31.5273 0
25.7213 31.7726 0
26.5289 31.7212 0
27.7735 31.5371 0
28.8949 31.5358 0
29.1288 32.807 0
27.8424 32.9023 0
26.5584 32.894 0
25.6268 32.7985 0
24.665 32.7187 0
23.7921 32.7761 0
22.4928 32.8155 0
21.3645 32.6323 0
20.3513 32.7176 0
19.2876 32.7322 0
18.2133 32.7336 0
17.0954 30.4658 0
18.225 30.4348 0
19.2981 30.5097 0
20.4471 30.4714 0
21.4478 30.5148 0
22.5805 30.4175 0
23.5928 30.4857 0
24.6995 30.4395 0
25.9888 30.4154 0
26.8208 30.561 0
27.8076 30.7666 0
28.9949 30.7569 0
16.1209 28.4557 0
17.1474 28.2436 0
18.0898 28.1136 0
19.2431 28.222 0
20.1696 28.3572 0
21.5149 28.3019 0
22.6355 28.2633 0
23.5544 28.2057 0
24.8715 28.325 0
25.8087 28.2383 0
26.908 28.0291 0
27.7045 28.1649 0
29.1874 28.2256 0
28.5473 29.3522 0
27.7841 29.3275 0
26.9083 29.3024 0
25.9863 29.2175 0
24.63 29.3809 0
23.411 29.36 0
22.3948 29.3396 0
21.3094 29.4751 0
20.3824 29.343 0
19.3595 29.2505 0
18.1864 29.4518 0
17.0828 29.4207 0
16.1569 29.3744 0
16.0417 26.8121 0
17.1205 27.0208 0
18.23 27.1747 0
19.3235 27.0953 0
20.358 27.1762 0
21.3931 27.2185 0
22.4554 27.0049 0
23.5828 27.1504 0
24.8533 27.253 0
25.6051 27.3818 0
27.0283 27.1849 0
27.9027 27.1288 0
28.6013 27.0899 0
16.2477 26.1191 0
17.1273 25.8943 0
18.2761 25.9184 0
19.299 25.8749 0
20.3946 25.9007 0
21.5081 25.9707 0
22.6088 25.884 0
23.5048 25.949 0
24.8019 25.9917 0
25.525 25.8361 0
27.0272 25.8551 0
27.9021 25.9499 0
28.6696 25.913 0
16.3623 24.8862 0
17.0163 24.8487 0
18.3475 24.8763 0
19.3704 24.6432 0
20.3496 24.766 0
21.4613 24.688 0
22.5734 24.9158 0
23.6598 24.7263 0
24.8372 24.7892 0
25.5612 24.9919 0
27.0465 24.9823 0
27.9846 24.928 0
28.9985 25.1088 0
15.7689 23.741 0
17.2157 23.7236 0
17.9788 23.7497 0
19.2054 23.7559 0
20.2879 23.708 0
21.4673 23.6776 0
[...]
POINT_DATA 6802
VECTORS displacement float
-0.00221837 0.0141476 0
-0.00221882 0.0139388 0
-0.00221946 0 0
-0.00443893 0 0
-0.00503462 0.0180056 0
-0.00380713 0.018007 0
-0.00356727 0.0180066 0
-0.00437163 0.0334435 0
-0.00221976 0.0335667 0
-0.00222047 0.0220743 0
-0.00222092 0.021866 0
-0.000871217 0.0180056 0
-0.000631391 0.0180053 0
0.000595491 0.0180054 0
0 0 0
-6.79458e-05 0.0334433 0
-0.002218 0.0141315 0
-0.00221847 0.0141198 0
-0.0022185 0.0141119 0
-0.00221925 0.014106 0
-0.00221844 0.0141006 0
-0.00221848 0.0140953 0
-0.00221855 0.0140899 0
-0.00221856 0.014084 0
-0.00221857 0.0140774 0
-0.00221857 0.0140699 0
-0.00221863 0.0140615 0
-0.0022187 0.0140521 0
-0.00221864 0.0140417 0
-0.00221864 0.0140303 0
-0.0022187 0.0140178 0
-0.00221871 0.0140043 0
-0.00221872 0.0139896 0
-0.00221874 0.0139737 0
-0.00221877 0.0139568 0
-0.00221888 0.0139172 0
-0.00221892 0.0138784 0
-0.00221891 0.0137586 0
-0.0022187 0.013524 0
-0.0022195 0.0132606 0
-0.0022186 0.0129675 0
-0.00222048 0.0126554 0
-0.00221939 0.0123288 0
-0.00221961 0.01199 0
-0.00221968 0.0116417 0
-0.00221957 0.0112859 0
-0.00221959 0.0109236 0
-0.00221947 0.0105579 0
-0.00221959 0.0101875 0
-0.0022194 0.00981378 0
-0.00221945 0.00943671 0
-0.00221942 0.0090577 0
-0.00221946 0.00867603 0
-0.00221946 0.00829222 0
-0.00221937 0.00790654 0
-0.00221953 0.00751925 0
-0.0022194 0.00713065 0
-0.00221947 0.00674069 0
-0.00221943 0.00634975 0
-0.00221944 0.00595759 0
-0.00221945 0.00556441 0
-0.00221946 0.00517032 0
-0.00221948 0.0047754 0
-0.00221942 0.00437982 0
-0.00221946 0.00398356 0
-0.00221946 0.00358682 0
-0.00221946 0.00318954 0
-0.00221947 0.00279179 0
-0.00221947 0.00239365 0
-0.00221947 0.00199517 0
-0.00221946 0.00159646 0
-0.00221948 0.00119752 0
-0.00221946 0.000798447 0
-0.00221946 0.00039924 0
-0.00233433 0 0
-0.00244925 0 0
-0.00256428 0 0
-0.00267948 0 0
-0.00279486 0 0
-0.00291048 0 0
-0.00302638 0 0
-0.00314258 0 0
-0.00325907 0 0
-0.00337591 0 0
-0.00349314 0 0
-0.00361058 0 0
-0.00372837 0 0
-0.00384638 0 0
-0.00396466 0 0
-0.00408312 0 0
-0.00420172 0 0
-0.00432038 0 0
-0.0044388 0.000398334 0
-0.0044383 0.000796725 0
-0.00443753 0.00119518 0
-0.00443639 0.00159382 0
-0.00443492 0.00199265 0
-0.00443321 0.00239179 0
-0.00443118 0.00279124 0
-0.00442888 0.00319112 0
-0.00442639 0.00359148 0
-0.00442369 0.00399238 0
-0.00442082 0.00439394 0
-0.00441772 0.00479627 0
-0.00441484 0.00519941 0
-0.00441176 0.00560358 0
-0.0044088 0.00600849 0
-0.00440622 0.00641466 0
-0.00440394 0.00682212 0
-0.00440205 0.0072311 0
-0.00440099 0.00764156 0
-0.00440083 0.00805366 0
-0.00440184 0.00846748 0
-0.00440386 0.00888349 0
-0.00440803 0.00930102 0
-0.00441416 0.00972067 0
-0.00442254 0.0101425 0
-0.00443406 0.0105658 0
-0.00444905 0.0109922 0
-0.00446648 0.0114184 0
-0.00448853 0.0118465 0
-0.00451509 0.0122764 0
-0.00454566 0.0127063 0
-0.00458096 0.013135 0
-0.00462072 0.0135638 0
-0.00466442 0.0139899 0
-0.00471162 0.0144132 0
-0.00476084 0.0148325 0
-0.00481105 0.0152471 0
-0.00486119 0.0156564 0
-0.00490773 0.0160604 0
-0.00495055 0.0164578 0
-0.004987 0.0168503 0
-0.00501299 0.017237 0
-0.00502988 0.0176222 0
-0.0049192 0.0180055 0
-0.00479955 0.0180054 0
-0.00468096 0.0180054 0
-0.00456435 0.0180053 0
-0.00445178 0.0180057 0
-0.00434322 0.0180046 0
-0.00423987 0.0180047 0
-0.00414234 0.0180063 0
-0.00405385 0.0180059 0
-0.00397202 0.0180062 0
-0.00390515 0.0180064 0
-0.00384746 0.0180069 0
-0.00382059 0.018007 0
-0.0038121 0.018007 0
-0.00380273 0.018007 0
-0.00379886 0.0180071 0
-0.00379502 0.018007 0
-0.00379103 0.0180068 0
-0.00378697 0.0180068 0
-0.00378285 0.0180068 0
-0.00377849 0.0180068 0
-0.00377379 0.0180068 0
-0.00376853 0.0180068 0
-0.00376247 0.0180067 0
-0.00375539 0.0180067 0
-0.00374712 0.0180067 0
-0.00373728 0.0180067 0
-0.00372559 0.0180065 0
-0.00371135 0.0180065 0
-0.00369443 0.0180068 0
-0.00367339 0.0180066 0
-0.00364655 0.0180066 0
-0.00361215 0.0180067 0
-0.0035702 0.0178493 0
-0.00356887 0.0176935 0
-0.0035632 0.0175424 0
-0.00355218 0.0173924 0
-0.00354589 0.0172364 0
-0.00353413 0.0170831 0
-0.00351986 0.0169321 0
-0.00350337 0.016783 0
-0.00348476 0.0166361 0
-0.00346408 0.0164916 0
-0.0034414 0.0163496 0
-0.00341675 0.0162103 0
-0.00339016 0.0160739 0
-0.00336168 0.0159408 0
-0.00333135 0.015811 0
-0.00329922 0.0156848 0
-0.00326535 0.0155623 0
-0.00322977 0.0154437 0
-0.00319253 0.0153293 0
-0.00315369 0.0152193 0
-0.00311339 0.0151138 0
-0.00307172 0.0150131 0
-0.00302874 0.0149173 0
-0.00298446 0.0148264 0
-0.00293897 0.0147407 0
-0.00289234 0.0146602 0
-0.00284463 0.0145852 0
-0.00279589 0.0145157 0
-0.00274622 0.0144518 0
-0.00269569 0.0143938 0
-0.00264434 0.0143415 0
-0.00259226 0.0142953 0
-0.00253935 0.0142551 0
-0.00248544 0.0142213 0
-0.00243004 0.0141957 0
-0.00237913 0.0141721 0
-0.00232727 0.0141565 0
-0.00227316 0.0141481 0
-0.00503019 0.0183861 0
-0.00501374 0.0187684 0
-0.00498843 0.0191522 0
-0.00495315 0.0195415 0
-0.00491106 0.0199358 0
-0.00486573 0.0203365 0
-0.00481655 0.0207421 0
-0.00476655 0.0211533 0
-0.00471841 0.0215687 0
-0.00467152 0.0219879 0
-0.00462838 0.0224099 0
-0.00458894 0.0228346 0
-0.00455379 0.0232593 0
-0.00452291 0.0236849 0
-0.00449669 0.0241107 0
-0.00447426 0.0245342 0
-0.00445592 0.0249577 0
-0.00444088 0.0253788 0
-0.00442945 0.0257983 0
-0.0044199 0.0262151 0
-0.00441316 0.0266303 0
-0.00440842 0.0270434 0
-0.00440464 0.027454 0
-0.00440254 0.0278632 0
-0.00440123 0.0282701 0
-0.00440027 0.028675 0
-0.00440011 0.0290785 0
-0.00439975 0.0294802 0
-0.0043994 0.0298804 0
-0.00439865 0.0302793 0
-0.0043977 0.0306769 0
-0.00439601 0.0310736 0
-0.00439353 0.0314695 0
-0.00439052 0.0318648 0
-0.00438665 0.0322596 0
-0.00438201 0.0326542 0
-0.00437694 0.0330488 0
-0.00425318 0.0334487 0
-0.00413464 0.0334541 0
-0.00401604 0.0334601 0
-0.00389769 0.0334666 0
-0.00377976 0.0334741 0
-0.00366254 0.033482 0
-0.00354601 0.0334907 0
-0.00343045 0.0334995 0
-0.00331592 0.0335088 0
-0.00320238 0.0335178 0
-0.0030899 0.0335268 0
-0.00297849 0.0335351 0
-0.00286813 0.0335431 0
-0.00275868 0.0335497 0
-0.00264974 0.033556 0
-0.0025416 0.0335606 0
-0.00243422 0.0335642 0
-0.00232688 0.0335663 0
-0.0022198 0.0331714 0
-0.00221978 0.0327758 0
-0.00221975 0.0323802 0
-0.00221975 0.0319847 0
-0.00221978 0.0315896 0
-0.00221978 0.0311951 0
-0.0022198 0.0308012 0
-0.00221976 0.0304082 0
-0.00221975 0.0300161 0
-0.00221975 0.0296249 0
-0.00221974 0.0292348 0
-0.00221981 0.0288461 0
-0.00221982 0.0284587 0
-0.00221981 0.0280729 0
-0.00221978 0.0276887 0
-0.00221978 0.0273065 0
-0.00221979 0.0269262 0
-0.00221996 0.0265484 0
-0.00221979 0.0261734 0
-0.00221991 0.0258012 0
-0.00221951 0.0254327 0
-0.00221999 0.0250685 0
-0.00221898 0.0247094 0
-0.00221966 0.0243558 0
-0.00221949 0.0240099 0
-0.00221922 0.0236734 0
-0.00221952 0.0233474 0
-0.00222062 0.0230397 0
-0.00221997 0.0227479 0
-0.00222081 0.022485 0
-0.00222044 0.0222543 0
-0.00222038 0.0221345 0
-0.00222043 0.0220959 0
-0.00222051 0.0220564 0
-0.00222056 0.0220395 0
-0.0022206 0.0220235 0
-0.00222065 0.0220085 0
-0.0022207 0.0219949 0
-0.00222074 0.0219823 0
-0.00222078 0.0219709 0
-0.00222082 0.0219606 0
-0.00222084 0.0219512 0
-0.00222087 0.0219428 0
-0.00222089 0.0219354 0
-0.00222091 0.0219288 0
-0.00222094 0.0219228 0
-0.00222097 0.0219172 0
-0.00222097 0.0219118 0
-0.00222103 0.0219066 0
-0.00222072 0.0219001 0
-0.00222134 0.0218938 0
-0.00222155 0.021882 0
-0.00227475 0.0218656 0
-0.00232869 0.0218561 0
-0.00238187 0.0218379 0
-0.00243545 0.0218186 0
-0.0024894 0.0217907 0
-0.00254282 0.0217564 0
-0.00259554 0.021716 0
-0.00264755 0.0216696 0
-0.00269881 0.0216172 0
-0.00274926 0.0215589 0
-0.00279882 0.0214949 0
-0.00284741 0.0214252 0
-0.00289495 0.0213501 0
-0.00294136 0.0212696 0
-0.0029866 0.0211838 0
-0.00303063 0.021093 0
-0.0030734 0.0209972 0
-0.00311484 0.0208966 0
-0.00315489 0.0207912 0
-0.00319348 0.0206814 0
-0.00323053 0.0205671 0
-0.00326597 0.0204487 0
-0.00329972 0.0203263 0
-0.00333169 0.0202002 0
-0.00336186 0.0200706 0
-0.00339019 0.0199376 0
-0.00341664 0.0198015 0
-0.00344118 0.0196625 0
-0.00346377 0.0195206 0
-0.00348435 0.0193762 0
-0.00350286 0.0192294 0
-0.00351926 0.0190806 0
-0.00353357 0.0189297 0
-0.0035455 0.0187767 0
-0.00355185 0.0186207 0
-0.00356299 0.0184709 0
-0.00356876 0.0183197 0
-0.00357023 0.0181639 0
-0.000826506 0.0180048 0
-0.000791954 0.0180048 0
-0.000765393 0.0180053 0
-0.00074403 0.0180056 0
-0.00072733 0.0180058 0
-0.000713052 0.0180056 0
-0.000701387 0.0180055 0
-0.000691602 0.0180054 0
-0.0006833 0.0180054 0
-0.0006759 0.0180054 0
-0.000669722 0.0180054 0
-0.000664373 0.0180053 0
-0.000659848 0.0180053 0
-0.000655554 0.0180052 0
-0.000651485 0.0180052 0
-0.000647511 0.0180052 0
-0.000643481 0.0180052 0
-0.000639859 0.0180051 0
-0.000635706 0.0180053 0
-0.00062642 0.0180052 0
-0.000617905 0.0180052 0
-0.000590957 0.0180051 0
-0.000534783 0.0180056 0
-0.000466981 0.018005 0
-0.000386072 0.0180055 0
-0.000296976 0.0180051 0
-0.000199849 0.0180056 0
-9.6089e-05 0.0180046 0
1.27178e-05 0.0180055 0
0.000126265 0.0180053 0
0.000241713 0.0180048 0
0.000360293 0.0180053 0
0.000480051 0.0180053 0
0.000590736 0.017622 0
0.00057384 0.0172368 0
0.000547893 0.01685 0
0.000511585 0.0164576 0
0.000468476 0.0160603 0
0.00042208 0.0156565 0
0.000372112 0.0152471 0
0.000321744 0.0148324 0
0.000272596 0.014413 0
0.000225552 0.0139898 0
0.000181888 0.0135637 0
0.00014208 0.0131351 0
0.000106897 0.0127061 0
7.60449e-05 0.0122764 0
4.99835e-05 0.011847 0
2.77748e-05 0.0114187 0
9.75212e-06 0.0109916 0
-4.7549e-06 0.0105661 0
-1.62256e-05 0.0101425 0
-2.47013e-05 0.00972079 0
-3.08243e-05 0.00930128 0
-3.46135e-05 0.00888333 0
-3.72779e-05 0.00846767 0
-3.81008e-05 0.00805379 0
-3.78918e-05 0.00764165 0
-3.67441e-05 0.00723135 0
-3.50617e-05 0.0068223 0
-3.28047e-05 0.00641482 0
-3.01536e-05 0.00600855 0
-2.70855e-05 0.00560347 0
-2.41119e-05 0.00519942 0
-2.11733e-05 0.00479634 0
-1.81406e-05 0.00439396 0
-1.52792e-05 0.00399238 0
-1.25507e-05 0.00359149 0
-1.00649e-05 0.00319113 0
-7.77455e-06 0.00279126 0
-5.72967e-06 0.00239181 0
-4.03168e-06 0.00199266 0
-2.56789e-06 0.00159381 0
-1.41656e-06 0.00119517 0
-6.35552e-07 0.000796723 0
-1.40619e-07 0.000398334 0
-0.000118553 0 0
-0.000237217 0 0
-0.000355812 0 0
-0.000474273 0 0
-0.00059255 0 0
-0.000710596 0 0
-0.000828391 0 0
-0.000945863 0 0
-0.00106303 0 0
-0.00117986 0 0
-0.00129634 0 0
-0.00141252 0 0
-0.00152841 0 0
-0.00164409 0 0
-0.00175948 0 0
-0.00187466 0 0
-0.00198969 0 0
-0.00210459 0 0
-0.00216401 0.0141486 0
-0.00211099 0.0141573 0
-0.00205857 0.0141718 0
-0.00200502 0.0141936 0
-0.00195124 0.0142218 0
-0.00189803 0.0142563 0
-0.00184534 0.0142964 0
-0.00179328 0.0143426 0
-0.00174195 0.0143947 0
-0.00169145 0.0144528 0
-0.00164184 0.0145167 0
-0.00159323 0.0145863 0
-0.00154567 0.0146613 0
-0.00149921 0.0147417 0
-0.00145389 0.0148274 0
-0.00140974 0.0149182 0
-0.00136685 0.015014 0
-0.00132532 0.0151147 0
-0.00128519 0.0152199 0
-0.0012465 0.0153297 0
-0.00120931 0.0154439 0
-0.00117373 0.0155623 0
-0.00113986 0.0156847 0
-0.00110776 0.0158109 0
-0.00107746 0.0159405 0
-0.00104903 0.0160736 0
-0.00102249 0.0162098 0
-0.000997891 0.016349 0
-0.000975266 0.0164909 0
-0.00095467 0.0166354 0
-0.000936157 0.0167822 0
-0.000919755 0.0169311 0
-0.00090539 0.0170819 0
-0.000892697 0.0172343 0
-0.000882629 0.0173882 0
-0.000876185 0.0175423 0
-0.00087112 0.0176952 0
-0.000867778 0.0178489 0
-0.00211265 0.0335664 0
-0.00200535 0.0335642 0
-0.00189792 0.0335606 0
-0.00178987 0.0335559 0
-0.00168116 0.0335499 0
-0.00157151 0.033543 0
-0.00146113 0.033535 0
-0.00134969 0.0335267 0
-0.00123719 0.0335176 0
-0.00112357 0.0335085 0
-0.0010089 0.0334995 0
-0.000893508 0.0334906 0
-0.000777018 0.0334819 0
-0.000659688 0.0334739 0
-0.000541864 0.0334666 0
-0.000423536 0.03346 0
-0.000305021 0.033454 0
-0.000186395 0.0334485 0
-6.26189e-05 0.0330485 0
-5.75377e-05 0.032654 0
-5.28803e-05 0.0322594 0
-4.89629e-05 0.0318646 0
-4.59234e-05 0.0314694 0
-4.34873e-05 0.0310735 0
-4.18212e-05 0.0306769 0
-4.07509e-05 0.0302791 0
-3.99221e-05 0.0298802 0
-3.97631e-05 0.0294801 0
-3.93718e-05 0.0290785 0
-3.92158e-05 0.0286752 0
-3.83036e-05 0.0282703 0
-3.70155e-05 0.0278635 0
-3.49382e-05 0.0274546 0
-3.14774e-05 0.0270438 0
-2.64992e-05 0.0266308 0
-1.96045e-05 0.0262158 0
-1.08077e-05 0.0257981 0
1.1563e-06 0.0253791 0
1.60642e-05 0.0249579 0
3.43067e-05 0.0245348 0
5.65968e-05 0.0241105 0
8.30762e-05 0.0236851 0
0.000113846 0.0232594 0
0.000148982 0.0228346 0
0.00018841 0.0224096 0
0.0002318 0.0219874 0
0.000278488 0.0215679 0
0.000327172 0.0211524 0
0.000376766 0.0207414 0
0.000426203 0.0203358 0
0.000472005 0.0199352 0
0.000513949 0.0195413 0
0.000549618 0.0191522 0
0.000574852 0.0187684 0
0.000591208 0.0183858 0
-0.000868533 0.0181626 0
-0.000869827 0.0183183 0
-0.00087539 0.0184694 0
-0.000886354 0.0186194 0
-0.000892586 0.0187754 0
-0.000904315 0.0189288 0
-0.00091854 0.0190799 0
-0.000935018 0.019229 0
-0.000953642 0.0193759 0
-0.00097434 0.0195205 0
-0.00099705 0.0196626 0
-0.00102173 0.0198019 0
-0.00104834 0.0199382 0
-0.00107684 0.0200714 0
-0.00110719 0.0202012 0
-0.00113934 0.0203275 0
-0.00117325 0.02045 0
-0.00120889 0.0205686 0
-0.00124618 0.020683 0
-0.00128504 0.0207931 0
-0.00132535 0.0208985 0
-0.00136702 0.0209993 0
-0.00141004 0.0210952 0
-0.00145433 0.0211861 0
-0.00149984 0.0212718 0
-0.0015465 0.0213523 0
-0.00159426 0.0214274 0
-0.00164306 0.0214969 0
-0.00169282 0.0215608 0
-0.00174346 0.0216189 0
-0.00179491 0.021671 0
-0.0018471 0.0217172 0
-0.00189993 0.0217571 0
-0.00195323 0.0217913 0
-0.00200696 0.0218192 0
-0.0020608 0.0218406 0
-0.00211375 0.0218559 0
-0.00216672 0.0218653 0
-0.00230183 0.0140826 0
-0.00255935 0.0149354 0
-0.00281719 0.0154072 0
-0.0031149 0.0157838 0
-0.00337551 0.0160044 0
-0.0035882 0.0160825 0
-0.00379896 0.0162393 0
-0.00396038 0.0162015 0
-0.004148 0.016179 0
-0.00429872 0.0163242 0
-0.00441859 0.0163105 0
-0.00459832 0.0162403 0
-0.00476928 0.0162715 0
-0.00486498 0.0169184 0
-0.00467678 0.0169418 0
-0.0044863 0.0169212 0
-0.00434622 0.0168626 0
-0.004203 0.0168107 0
-0.00408318 0.0168313 0
-0.003905 0.0168303 0
-0.0037212 0.0166887 0
-0.00357564 0.0166708 0
-0.003387 0.0165331 0
-0.00314812 0.0162012 0
-0.00244932 0.0144126 0
-0.00269031 0.0147923 0
-0.0029605 0.0151298 0
-0.0032261 0.0153176 0
-0.00344634 0.0154597 0
-0.00365737 0.015487 0
-0.00384828 0.0155751 0
-0.00403435 0.0155882 0
-0.00424429 0.01561 0
-0.00438771 0.015708 0
-0.00455629 0.0158417 0
-0.00473947 0.0158768 0
-0.00232211 0.0134421 0
-0.00244895 0.013503 0
-0.00259388 0.0136068 0
-0.00280539 0.0138599 0
-0.00299577 0.0140743 0
-0.00326614 0.0142073 0
-0.00348372 0.0142837 0
-0.00365398 0.0143144 0
-0.00389974 0.0144467 0
-0.0040559 0.0144389 0
-0.00422624 0.0143701 0
-0.00436557 0.0144737 0
-0.00460661 0.0145713 0
-0.0045789 0.0151324 0
-0.00445637 0.0150897 0
-0.00431356 0.0150461 0
-0.00415545 0.0149703 0
-0.00393636 0.0150101 0
-0.00371517 0.0149427 0
-0.0035192 0.0148656 0
-0.00331068 0.0148449 0
-0.00310038 0.0146516 0
-0.00287079 0.0144266 0
-0.00263092 0.0142721 0
-0.00243289 0.0139772 0
-0.00231541 0.0137648 0
-0.00233012 0.0128064 0
-0.00245839 0.0129835 0
-0.00261644 0.0131897 0
-0.00279944 0.0132985 0
-0.00298994 0.0134695 0
-0.00318672 0.0136042 0
-0.00337802 0.0135835 0
-0.00359372 0.0137413 0
-0.0038273 0.0138669 0
-0.0039652 0.013971 0
-0.00419277 0.0139261 0
-0.00433263 0.0139328 0
-0.00444299 0.013943 0
-0.00235938 0.0125336 0
-0.00246965 0.0124951 0
-0.0026288 0.0126099 0
-0.00278666 0.0126925 0
-0.00296971 0.012816 0
-0.00316658 0.0129542 0
-0.00336065 0.0129964 0
-0.00352205 0.0130919 0
-0.00375088 0.0131884 0
-0.00386734 0.0131419 0
-0.004119 0.0132189 0
-0.00426703 0.0133066 0
-0.00438908 0.0133203 0
-0.00238079 0.0120111 0
-0.00246262 0.0120261 0
-0.00264302 0.0121294 0
-0.0027952 0.0120997 0
-0.00295018 0.0122402 0
-0.00313222 0.012288 0
-0.00332534 0.0124856 0
-0.00350559 0.0124551 0
-0.00370721 0.0125526 0
-0.00383656 0.0126956 0
-0.00408163 0.0127565 0
-0.00423202 0.0127668 0
-0.00440331 0.0129054 0
-0.00231312 0.0114902 0
-0.00249509 0.0115295 0
-0.0025963 0.0115799 0
-0.00277058 0.0116598 0
-0.00293402 0.0117102 0
-0.00312002 0.0117749 0
-0.00328775 0.0117786 0
-0.00346262 0.0118523 0
-0.00362426 0.012006 0
-0.00381935 0.0119686 0
-0.00403134 0.0120405 0
-0.00417985 0.0120898 0
-0.00433404 0.0120761 0
-0.00236042 0.0109617 0
-0.00247927 0.0110006 0
-0.00259015 0.0110497 0
-0.0027699 0.0111579 0
-0.00294201 0.0111751 0
-0.00310671 0.0112089 0
-0.00327768 0.0112558 0
-0.00348674 0.0113816 0
-0.00360542 0.0113162 0
-0.00379081 0.0115028 0
-0.00400349 0.0114403 0
-0.00414948 0.0114674 0
-0.00433061 0.0115079 0
-0.00234717 0.0103173 0
-0.0025005 0.0103584 0
-0.00262357 0.010477 0
-0.00275032 0.0104872 0
-0.00294437 0.0105691 0
-0.00309816 0.0107392 0
-0.00324913 0.0107106 0
-0.00345765 0.0107786 0
-0.00363112 0.010755 0
-0.0037962 0.0109231 0
-0.00395504 0.0109259 0
-0.00408588 0.0109213 0
-0.00429468 0.0109173 0
-0.00236736 0.00998045 0
-0.00252937 0.0100163 0
-0.00263498 0.00998889 0
-0.00275482 0.0100536 0
-0.00296241 0.0100855 0
-0.00307574 0.0101236 0
-0.00326983 0.0101371 0
-0.00340847 0.0102103 0
-0.00359261 0.0101893 0
-0.00378289 0.0102422 0
-0.00394123 0.0104067 0
-0.00409813 0.0103071 0
-0.00428244 0.010423 0
-0.00236603 0.00941295 0
-0.00250319 0.009335 0
-0.0026359 0.00938725 0
-0.0027638 0.00938868 0
-0.00294462 0.00946666 0
-0.00307194 0.00943734 0
-0.00325938 0.00951379 0
-0.00342377 0.00966842 0
-0.0035857 0.0097194 0
-0.00378867 0.00977204 0
-0.00393022 0.00975571 0
-0.00407595 0.00981762 0
-0.00419874 0.00974187 0
-0.0023192 0.00885204 0
-0.00250553 0.00897142 0
-0.00267044 0.00889711 0
-0.00278905 0.00892245 0
-0.00293385 0.00897001 0
-0.00306335 0.00902175 0
-0.00325133 0.00902531 0
-0.00345587 0.0091326 0
-0.00356588 0.00906809 0
-0.00378133 0.00905414 0
-0.00391486 0.00910581 0
-0.00403283 0.00906367 0
-0.0042689 0.00905505 0
-0.00241753 0.00833026 0
-0.00252375 0.00837394 0
-0.00264953 0.00839124 0
-0.00279241 0.00841979 0
-0.00293466 0.00839098 0
-0.00307056 0.00836521 0
-0.00326771 0.0084498 0
-0.00344821 0.00841577 0
-0.00356398 0.00852283 0
-0.00378075 0.00859813 0
-0.00391643 0.00858271 0
-0.00405 0.00867382 0
-0.00419297 0.00866081 0
-0.00241622 0.00775712 0
-0.0025364 0.00779917 0
-0.00265987 0.00782128 0
-0.00279135 0.00786105 0
-0.00293599 0.0077703 0
-0.0030939 0.00791214 0
-0.00326124 0.0078215 0
-0.00343523 0.00789677 0
-0.0035676 0.00790579 0
-0.00377889 0.00789561 0
-0.00392172 0.00793781 0
-0.00405691 0.00795743 0
-0.00417502 0.00800362 0
-0.00236944 0.00735921 0
-0.00252762 0.00726566 0
-0.00266159 0.00725089 0
-0.00278976 0.00726747 0
-0.00292483 0.00732266 0
-0.00313278 0.00732564 0
-0.00326293 0.0073246 0
-0.00343667 0.00736107 0
-0.00359819 0.00737727 0
-0.00375854 0.00739976 0
-0.00388711 0.00739872 0
-0.00406688 0.00730676 0
-0.00428176 0.00742801 0
-0.00237397 0.00667427 0
-0.00251697 0.0065768 0
-0.00266885 0.0065711 0
-0.00280327 0.00664412 0
-0.00293633 0.00664701 0
-0.00313994 0.00673228 0
-0.00327089 0.00679366 0
-0.00341951 0.00691489 0
-0.00363272 0.00678989 0
-0.00376777 0.00691064 0
-0.00391412 0.00687692 0
-0.00406371 0.00692421 0
-0.00419266 0.00685879 0
-0.00232386 0.0061333 0
-0.00251578 0.00623423 0
-0.00267572 0.00623892 0
-0.00284035 0.00615673 0
-0.00296521 0.00617117 0
-0.00312335 0.00620477 0
-0.00327748 0.0062463 0
-0.00341111 0.00620706 0
-0.00363244 0.00617023 0
-0.00377199 0.0062133 0
-0.00390991 0.006156 0
-0.00404887 0.00615245 0
-0.00429027 0.00625373 0
-0.00242266 0.00559904 0
-0.00253648 0.00561846 0
-0.00267573 0.00562622 0
-0.00281497 0.00562661 0
-0.00296858 0.00565177 0
-0.00312493 0.00561712 0
-0.00328528 0.00558936 0
-0.00344874 0.00563611 0
-0.00361746 0.00568082 0
-0.00377172 0.00567791 0
-0.00391465 0.00573746 0
-0.00407633 0.00573394 0
-0.00424113 0.00565501 0
-0.00235534 0.00491174 0
-0.00252844 0.00488156 0
-0.00268736 0.00489936 0
-0.00283401 0.00494522 0
-0.00297529 0.00506581 0
-0.0031249 0.00498897 0